fcc Si                                  
   3.90000000000000     
     0.500000    0.500000    0.000000
     0.000000    0.500000    0.500000
     0.500000    0.000000    0.500000
   Si
     1
Direct
  0.000000  0.000000  0.000000
 
   20   20   20
 -.25618628008E+01 -.17635723913E+01 0.29388511461E+00 0.27776379683E+01 0.47891027456E+01
 0.57896328937E+01 0.57871265692E+01 0.52154187892E+01 0.46009362431E+01 0.41813616998E+01
 0.40338301358E+01 0.41813616998E+01 0.46009362431E+01 0.52154187892E+01 0.57871265692E+01
 0.57896328937E+01 0.47891027456E+01 0.27776379683E+01 0.29388511461E+00 -.17635723913E+01
 -.17635723913E+01 -.33848680654E+00 0.19094763464E+01 0.40966028635E+01 0.55023600859E+01
 0.58818052916E+01 0.54887840323E+01 0.48409816747E+01 0.43149822481E+01 0.40290185173E+01
 0.40291643635E+01 0.43152049410E+01 0.48409531768E+01 0.54885624767E+01 0.58817854899E+01
 0.55026721022E+01 0.40968017683E+01 0.19090721343E+01 -.33929361781E+00 -.17639916925E+01
 0.29388511461E+00 0.19094763464E+01 0.38121449941E+01 0.52662460407E+01 0.58570682289E+01
 0.56386617512E+01 0.50147322336E+01 0.44179339809E+01 0.40172842540E+01 0.38773792347E+01
 0.40172825018E+01 0.44179108288E+01 0.50146845911E+01 0.56386261244E+01 0.58570830650E+01
 0.52662850787E+01 0.38121263595E+01 0.19093701829E+01 0.29377584576E+00 -.33929361781E+00
 0.27776379683E+01 0.40966028635E+01 0.52662460407E+01 0.58311069941E+01 0.56956540316E+01
 0.51163713479E+01 0.44850629813E+01 0.40034467471E+01 0.37468683939E+01 0.37467658436E+01
 0.40032687719E+01 0.44850189198E+01 0.51164530448E+01 0.56956385708E+01 0.58309126358E+01
 0.52661494607E+01 0.40969177426E+01 0.27782189121E+01 0.19093701829E+01 0.19090721343E+01
 0.47891027456E+01 0.55023600859E+01 0.58570682289E+01 0.56956540316E+01 0.51491595153E+01
 0.45175835926E+01 0.39924937491E+01 0.36528373854E+01 0.35362413373E+01 0.36528445556E+01
 0.39924826254E+01 0.45175729038E+01 0.51491842132E+01 0.56956854147E+01 0.58570640419E+01
 0.55023717651E+01 0.47891996837E+01 0.40969177426E+01 0.38121263595E+01 0.40968017683E+01
 0.57896328937E+01 0.58818052916E+01 0.56386617512E+01 0.51163713479E+01 0.45175835926E+01
 0.39884552604E+01 0.36041582462E+01 0.34048144267E+01 0.34048725029E+01 0.36042579651E+01
 0.39884995447E+01 0.45176115552E+01 0.51164710223E+01 0.56387825580E+01 0.58817794387E+01
 0.57893958682E+01 0.55023717651E+01 0.52661494607E+01 0.52662850787E+01 0.55026721022E+01
 0.57871265692E+01 0.54887840323E+01 0.50147322336E+01 0.44850629813E+01 0.39924937491E+01
 0.36041582462E+01 0.33604920687E+01 0.32780746038E+01 0.33605315436E+01 0.36041963662E+01
 0.39924950295E+01 0.44850392912E+01 0.50147217953E+01 0.54888031895E+01 0.57871484689E+01
 0.58817794387E+01 0.58570640419E+01 0.58309126358E+01 0.58570830650E+01 0.58817854899E+01
 0.52154187892E+01 0.48409816747E+01 0.44179339809E+01 0.40034467471E+01 0.36528373854E+01
 0.34048144267E+01 0.32780746038E+01 0.32780984875E+01 0.34048377252E+01 0.36527714557E+01
 0.40032766956E+01 0.44177800998E+01 0.48409946160E+01 0.52156120277E+01 0.54888031895E+01
 0.56387825580E+01 0.56956854147E+01 0.56956385708E+01 0.56386261244E+01 0.54885624767E+01
 0.46009362431E+01 0.43149822481E+01 0.40172842540E+01 0.37468683939E+01 0.35362413373E+01
 0.34048725029E+01 0.33605315436E+01 0.34048377252E+01 0.35362076344E+01 0.37468562574E+01
 0.40172829571E+01 0.43149860079E+01 0.46009595489E+01 0.48409946160E+01 0.50147217953E+01
 0.51164710223E+01 0.51491842132E+01 0.51164530448E+01 0.50146845911E+01 0.48409531768E+01
 0.41813616998E+01 0.40290185173E+01 0.38773792347E+01 0.37467658436E+01 0.36528445556E+01
 0.36042579651E+01 0.36041963662E+01 0.36527714557E+01 0.37468562574E+01 0.38776120367E+01
 0.40291703130E+01 0.41812761243E+01 0.43149860079E+01 0.44177800998E+01 0.44850392912E+01
 0.45176115552E+01 0.45175729038E+01 0.44850189198E+01 0.44179108288E+01 0.43152049410E+01
 0.40338301358E+01 0.40291643635E+01 0.40172825018E+01 0.40032687719E+01 0.39924826254E+01
 0.39884995447E+01 0.39924950295E+01 0.40032766956E+01 0.40172829571E+01 0.40291703130E+01
 0.40338430137E+01 0.40291703130E+01 0.40172829571E+01 0.40032766956E+01 0.39924950295E+01
 0.39884995447E+01 0.39924826254E+01 0.40032687719E+01 0.40172825018E+01 0.40291643635E+01
 0.41813616998E+01 0.43152049410E+01 0.44179108288E+01 0.44850189198E+01 0.45175729038E+01
 0.45176115552E+01 0.44850392912E+01 0.44177800998E+01 0.43149860079E+01 0.41812761243E+01
 0.40291703130E+01 0.38776120367E+01 0.37468562574E+01 0.36527714557E+01 0.36041963662E+01
 0.36042579651E+01 0.36528445556E+01 0.37467658436E+01 0.38773792347E+01 0.40290185173E+01
 0.46009362431E+01 0.48409531768E+01 0.50146845911E+01 0.51164530448E+01 0.51491842132E+01
 0.51164710223E+01 0.50147217953E+01 0.48409946160E+01 0.46009595489E+01 0.43149860079E+01
 0.40172829571E+01 0.37468562574E+01 0.35362076344E+01 0.34048377252E+01 0.33605315436E+01
 0.34048725029E+01 0.35362413373E+01 0.37468683939E+01 0.40172842540E+01 0.43149822481E+01
 0.52154187892E+01 0.54885624767E+01 0.56386261244E+01 0.56956385708E+01 0.56956854147E+01
 0.56387825580E+01 0.54888031895E+01 0.52156120277E+01 0.48409946160E+01 0.44177800998E+01
 0.40032766956E+01 0.36527714557E+01 0.34048377252E+01 0.32780984875E+01 0.32780746038E+01
 0.34048144267E+01 0.36528373854E+01 0.40034467471E+01 0.44179339809E+01 0.48409816747E+01
 0.57871265692E+01 0.58817854899E+01 0.58570830650E+01 0.58309126358E+01 0.58570640419E+01
 0.58817794387E+01 0.57871484689E+01 0.54888031895E+01 0.50147217953E+01 0.44850392912E+01
 0.39924950295E+01 0.36041963662E+01 0.33605315436E+01 0.32780746038E+01 0.33604920687E+01
 0.36041582462E+01 0.39924937491E+01 0.44850629813E+01 0.50147322336E+01 0.54887840323E+01
 0.57896328937E+01 0.55026721022E+01 0.52662850787E+01 0.52661494607E+01 0.55023717651E+01
 0.57893958682E+01 0.58817794387E+01 0.56387825580E+01 0.51164710223E+01 0.45176115552E+01
 0.39884995447E+01 0.36042579651E+01 0.34048725029E+01 0.34048144267E+01 0.36041582462E+01
 0.39884552604E+01 0.45175835926E+01 0.51163713479E+01 0.56386617512E+01 0.58818052916E+01
 0.47891027456E+01 0.40968017683E+01 0.38121263595E+01 0.40969177426E+01 0.47891996837E+01
 0.55023717651E+01 0.58570640419E+01 0.56956854147E+01 0.51491842132E+01 0.45175729038E+01
 0.39924826254E+01 0.36528445556E+01 0.35362413373E+01 0.36528373854E+01 0.39924937491E+01
 0.45175835926E+01 0.51491595153E+01 0.56956540316E+01 0.58570682289E+01 0.55023600859E+01
 0.27776379683E+01 0.19090721343E+01 0.19093701829E+01 0.27782189121E+01 0.40969177426E+01
 0.52661494607E+01 0.58309126358E+01 0.56956385708E+01 0.51164530448E+01 0.44850189198E+01
 0.40032687719E+01 0.37467658436E+01 0.37468683939E+01 0.40034467471E+01 0.44850629813E+01
 0.51163713479E+01 0.56956540316E+01 0.58311069941E+01 0.52662460407E+01 0.40966028635E+01
 0.29388511461E+00 -.33929361781E+00 0.29377584576E+00 0.19093701829E+01 0.38121263595E+01
 0.52662850787E+01 0.58570830650E+01 0.56386261244E+01 0.50146845911E+01 0.44179108288E+01
 0.40172825018E+01 0.38773792347E+01 0.40172842540E+01 0.44179339809E+01 0.50147322336E+01
 0.56386617512E+01 0.58570682289E+01 0.52662460407E+01 0.38121449941E+01 0.19094763464E+01
 -.17635723913E+01 -.17639916925E+01 -.33929361781E+00 0.19090721343E+01 0.40968017683E+01
 0.55026721022E+01 0.58817854899E+01 0.54885624767E+01 0.48409531768E+01 0.43152049410E+01
 0.40291643635E+01 0.40290185173E+01 0.43149822481E+01 0.48409816747E+01 0.54887840323E+01
 0.58818052916E+01 0.55023600859E+01 0.40966028635E+01 0.19094763464E+01 -.33848680654E+00
 -.17635964485E+01 -.33853197911E+00 0.19094476553E+01 0.40965929750E+01 0.55023421784E+01
 0.58817822349E+01 0.54887824190E+01 0.48409957635E+01 0.43149827282E+01 0.40290097143E+01
 0.40291751160E+01 0.43152306070E+01 0.48409644163E+01 0.54885634929E+01 0.58818056001E+01
 0.55027071845E+01 0.40968212765E+01 0.19090757801E+01 -.33928343897E+00 -.17639842710E+01
 -.33853197911E+00 0.14207085513E+01 0.35101180166E+01 0.51408300566E+01 0.58591521707E+01
 0.57058375839E+01 0.50953430461E+01 0.44917507328E+01 0.40843257276E+01 0.39417550025E+01
 0.40843825566E+01 0.44917240712E+01 0.50952483274E+01 0.57059211711E+01 0.58595231442E+01
 0.51411337068E+01 0.35098285036E+01 0.14198069423E+01 -.33935693956E+00 -.10260245884E+01
 0.19094476553E+01 0.35101180166E+01 0.49831309006E+01 0.57922205528E+01 0.57993554512E+01
 0.52640728463E+01 0.46220098684E+01 0.41248204057E+01 0.38582408966E+01 0.38581349977E+01
 0.41246148743E+01 0.46219241816E+01 0.52642014023E+01 0.57995618064E+01 0.57922896557E+01
 0.49830015608E+01 0.35099165593E+01 0.19093137369E+01 0.87035460519E+00 0.87039376403E+00
 0.40965929750E+01 0.51408300566E+01 0.57922205528E+01 0.58219364843E+01 0.53445943309E+01
 0.47002319484E+01 0.41500457326E+01 0.37904409485E+01 0.36663996075E+01 0.37904340394E+01
 0.41500082481E+01 0.47001669136E+01 0.53445196741E+01 0.58218563785E+01 0.57921916051E+01
 0.51409839127E+01 0.40969516883E+01 0.31432936830E+01 0.27589804174E+01 0.31429669054E+01
 0.55023421784E+01 0.58591521707E+01 0.57993554512E+01 0.53445943309E+01 0.47263179290E+01
 0.41621760684E+01 0.37469857824E+01 0.35301089351E+01 0.35302063402E+01 0.37471244733E+01
 0.41621356982E+01 0.47261433644E+01 0.53445199478E+01 0.57994742763E+01 0.58593325546E+01
 0.55024408690E+01 0.49522448426E+01 0.45516213731E+01 0.45516318097E+01 0.49522366726E+01
 0.58817822349E+01 0.57058375839E+01 0.52640728463E+01 0.47002319484E+01 0.41621760684E+01
 0.37322766152E+01 0.34603949269E+01 0.33680728797E+01 0.34604094651E+01 0.37322705249E+01
 0.41621679315E+01 0.47002945273E+01 0.52642095021E+01 0.57059313844E+01 0.58817102459E+01
 0.58036286394E+01 0.56284041595E+01 0.55427606852E+01 0.56285854408E+01 0.58038387769E+01
 0.54887824190E+01 0.50953430461E+01 0.46220098684E+01 0.41500457326E+01 0.37469857824E+01
 0.34603949269E+01 0.33135283619E+01 0.33135115329E+01 0.34603762934E+01 0.37470002767E+01
 0.41500581757E+01 0.46219676097E+01 0.50952671852E+01 0.54887583256E+01 0.57218628082E+01
 0.58018438846E+01 0.58064308969E+01 0.58063828081E+01 0.58017417503E+01 0.57217953979E+01
 0.48409957635E+01 0.44917507328E+01 0.41248204057E+01 0.37904409485E+01 0.35301089351E+01
 0.33680728797E+01 0.33135115329E+01 0.33681281263E+01 0.35301465026E+01 0.37903636396E+01
 0.41246140417E+01 0.44915516913E+01 0.48409808969E+01 0.51293358836E+01 0.53272851635E+01
 0.54300142986E+01 0.54596948619E+01 0.54298201461E+01 0.53269969306E+01 0.51291316894E+01
 0.43149827282E+01 0.40843257276E+01 0.38582408966E+01 0.36663996075E+01 0.35302063402E+01
 0.34604094651E+01 0.34603762934E+01 0.35301465026E+01 0.36663747161E+01 0.38582553269E+01
 0.40843381604E+01 0.43149789479E+01 0.45203854132E+01 0.46794257410E+01 0.47835837160E+01
 0.48339305512E+01 0.48339077237E+01 0.47835329694E+01 0.46793851410E+01 0.45203762896E+01
 0.40290097143E+01 0.39417550025E+01 0.38581349977E+01 0.37904340394E+01 0.37471244733E+01
 0.37322705249E+01 0.37470002767E+01 0.37903636396E+01 0.38582553269E+01 0.39419901412E+01
 0.40291511574E+01 0.41072320542E+01 0.41677717935E+01 0.42081540291E+01 0.42302255277E+01
 0.42371088382E+01 0.42302666892E+01 0.42082793298E+01 0.41679389136E+01 0.41072912715E+01
 0.40291751160E+01 0.40843825566E+01 0.41246148743E+01 0.41500082481E+01 0.41621356982E+01
 0.41621679315E+01 0.41500581757E+01 0.41246140417E+01 0.40843381604E+01 0.40291511574E+01
 0.39624366194E+01 0.38918453887E+01 0.38276625134E+01 0.37795565179E+01 0.37540480650E+01
 0.37540633238E+01 0.37795836341E+01 0.38276658379E+01 0.38918170043E+01 0.39624148573E+01
 0.43152306070E+01 0.44917240712E+01 0.46219241816E+01 0.47001669136E+01 0.47261433644E+01
 0.47002945273E+01 0.46219676097E+01 0.44915516913E+01 0.43149789479E+01 0.41072320542E+01
 0.38918453887E+01 0.36957722571E+01 0.35422454456E+01 0.34460046871E+01 0.34134618736E+01
 0.34460399642E+01 0.35421969241E+01 0.36956075441E+01 0.38917219456E+01 0.41073225782E+01
 0.48409644163E+01 0.50952483274E+01 0.52642014023E+01 0.53445196741E+01 0.53445199478E+01
 0.52642095021E+01 0.50952671852E+01 0.48409808969E+01 0.45203854132E+01 0.41677717935E+01
 0.38276625134E+01 0.35422454456E+01 0.33409581203E+01 0.32381663104E+01 0.32381842974E+01
 0.33409923630E+01 0.35422666038E+01 0.38276693784E+01 0.41677773107E+01 0.45203835190E+01
 0.54885634929E+01 0.57059211711E+01 0.57995618064E+01 0.58218563785E+01 0.57994742763E+01
 0.57059313844E+01 0.54887583256E+01 0.51293358836E+01 0.46794257410E+01 0.42081540291E+01
 0.37795565179E+01 0.34460046871E+01 0.32381663104E+01 0.31680381804E+01 0.32381173454E+01
 0.34460262828E+01 0.37797045856E+01 0.42083001252E+01 0.46793855628E+01 0.51291147774E+01
 0.58818056001E+01 0.58595231442E+01 0.57922896557E+01 0.57921916051E+01 0.58593325546E+01
 0.58817102459E+01 0.57218628082E+01 0.53272851635E+01 0.47835837160E+01 0.42302255277E+01
 0.37540480650E+01 0.34134618736E+01 0.32381842974E+01 0.32381173454E+01 0.34133451024E+01
 0.37540162728E+01 0.42302745866E+01 0.47835931910E+01 0.53272083042E+01 0.57218103208E+01
 0.55027071845E+01 0.51411337068E+01 0.49830015608E+01 0.51409839127E+01 0.55024408690E+01
 0.58036286394E+01 0.58018438846E+01 0.54300142986E+01 0.48339305512E+01 0.42371088382E+01
 0.37540633238E+01 0.34460399642E+01 0.33409923630E+01 0.34460262828E+01 0.37540162728E+01
 0.42369930853E+01 0.48337651749E+01 0.54299188025E+01 0.58019392754E+01 0.58038874232E+01
 0.40968212765E+01 0.35098285036E+01 0.35099165593E+01 0.40969516883E+01 0.49522448426E+01
 0.56284041595E+01 0.58064308969E+01 0.54596948619E+01 0.48339077237E+01 0.42302666892E+01
 0.37795836341E+01 0.35421969241E+01 0.35422666038E+01 0.37797045856E+01 0.42302745866E+01
 0.48337651749E+01 0.54595586486E+01 0.58064607111E+01 0.56285337941E+01 0.49522652680E+01
 0.19090757801E+01 0.14198069423E+01 0.19093137369E+01 0.31432936830E+01 0.45516213731E+01
 0.55427606852E+01 0.58063828081E+01 0.54298201461E+01 0.47835329694E+01 0.42082793298E+01
 0.38276658379E+01 0.36956075441E+01 0.38276693784E+01 0.42083001252E+01 0.47835931910E+01
 0.54299188025E+01 0.58064607111E+01 0.55427154590E+01 0.45514000170E+01 0.31429733323E+01
 -.33928343897E+00 -.33935693956E+00 0.87035460519E+00 0.27589804174E+01 0.45516318097E+01
 0.56285854408E+01 0.58017417503E+01 0.53269969306E+01 0.46793851410E+01 0.41679389136E+01
 0.38918170043E+01 0.38917219456E+01 0.41677773107E+01 0.46793855628E+01 0.53272083042E+01
 0.58019392754E+01 0.56285337941E+01 0.45514000170E+01 0.27588511191E+01 0.87042583592E+00
 -.17639842710E+01 -.10260245884E+01 0.87039376403E+00 0.31429669054E+01 0.49522366726E+01
 0.58038387769E+01 0.57217953979E+01 0.51291316894E+01 0.45203762896E+01 0.41072912715E+01
 0.39624148573E+01 0.41073225782E+01 0.45203835190E+01 0.51291147774E+01 0.57218103208E+01
 0.58038874232E+01 0.49522652680E+01 0.31429733323E+01 0.87042583592E+00 -.10259771764E+01
 0.29383569563E+00 0.19094131325E+01 0.38121255823E+01 0.52662584878E+01 0.58570608147E+01
 0.56386437328E+01 0.50147484442E+01 0.44179689113E+01 0.40172896969E+01 0.38773696471E+01
 0.40173057581E+01 0.44179518580E+01 0.50146946651E+01 0.56386197184E+01 0.58571085570E+01
 0.52663267017E+01 0.38121315433E+01 0.19093466599E+01 0.29376643132E+00 -.33930289850E+00
 0.19094131325E+01 0.35100887437E+01 0.49831310657E+01 0.57922370108E+01 0.57993612548E+01
 0.52640744374E+01 0.46220277769E+01 0.41248444408E+01 0.38582492754E+01 0.38581376862E+01
 0.41246332711E+01 0.46219475082E+01 0.52642073313E+01 0.57995602618E+01 0.57923017469E+01
 0.49830148167E+01 0.35099054182E+01 0.19092853943E+01 0.87033159597E+00 0.87037156902E+00
 0.38121255823E+01 0.49831310657E+01 0.57495496330E+01 0.58557546624E+01 0.54095829607E+01
 0.47635646823E+01 0.42052112714E+01 0.38387993905E+01 0.37121472232E+01 0.38387538941E+01
 0.42051514873E+01 0.47635393949E+01 0.54096049613E+01 0.58557720401E+01 0.57495271422E+01
 0.49831195112E+01 0.38121828287E+01 0.27589182236E+01 0.23369048943E+01 0.27588383095E+01
 0.52662584878E+01 0.57922370108E+01 0.58557546624E+01 0.54561115556E+01 0.48355510030E+01
 0.42544808329E+01 0.38235367039E+01 0.35974591259E+01 0.35975400553E+01 0.38236756619E+01
 0.42545086520E+01 0.48354348109E+01 0.54559497798E+01 0.58556533538E+01 0.57922745915E+01
 0.52664666149E+01 0.45516994975E+01 0.40491301062E+01 0.40489987445E+01 0.45514231049E+01
 0.58570608147E+01 0.57993612548E+01 0.54095829607E+01 0.48355510030E+01 0.42711095182E+01
 0.38155527330E+01 0.35257552713E+01 0.34270851969E+01 0.35258073339E+01 0.38155870916E+01
 0.42710988736E+01 0.48355362577E+01 0.54095887022E+01 0.57993647904E+01 0.58570557507E+01
 0.56285368366E+01 0.53270497545E+01 0.51920667856E+01 0.53270246545E+01 0.56285237234E+01
 0.56386437328E+01 0.52640744374E+01 0.47635646823E+01 0.42544808329E+01 0.38155527330E+01
 0.35016317967E+01 0.33402046638E+01 0.33401674430E+01 0.35015568814E+01 0.38155197103E+01
 0.42545503125E+01 0.47637168327E+01 0.52642007627E+01 0.56386187895E+01 0.58016958055E+01
 0.57941470287E+01 0.57390746278E+01 0.57391944731E+01 0.57944110638E+01 0.58019039213E+01
 0.50147484442E+01 0.46220277769E+01 0.42052112714E+01 0.38235367039E+01 0.35257552713E+01
 0.33402046638E+01 0.32776585549E+01 0.33402010549E+01 0.35257650061E+01 0.38235444277E+01
 0.42051828756E+01 0.46219754634E+01 0.50147097301E+01 0.53271883745E+01 0.55155846596E+01
 0.55949959218E+01 0.56132933161E+01 0.55950437102E+01 0.55156290152E+01 0.53272147602E+01
 0.44179689113E+01 0.41248444408E+01 0.38387993905E+01 0.35974591259E+01 0.34270851969E+01
 0.33401674430E+01 0.33402010549E+01 0.34271611058E+01 0.35974965536E+01 0.38387054146E+01
 0.41246265550E+01 0.44177764546E+01 0.46794086894E+01 0.48815271910E+01 0.50127393382E+01
 0.50742850674E+01 0.50741984571E+01 0.50125383647E+01 0.48813628824E+01 0.46794224215E+01
 0.40172896969E+01 0.38582492754E+01 0.37121472232E+01 0.35975400553E+01 0.35258073339E+01
 0.35015568814E+01 0.35257650061E+01 0.35974965536E+01 0.37121311333E+01 0.38582491438E+01
 0.40172828492E+01 0.41677658848E+01 0.42919149168E+01 0.43802306309E+01 0.44313507344E+01
 0.44478522314E+01 0.44313182536E+01 0.43801948578E+01 0.42919031509E+01 0.41677747837E+01
 0.38773696471E+01 0.38581376862E+01 0.38387538941E+01 0.38236756619E+01 0.38155870916E+01
 0.38155197103E+01 0.38235444277E+01 0.38387054146E+01 0.38582491438E+01 0.38775644707E+01
 0.38918102717E+01 0.38983505761E+01 0.38980374654E+01 0.38943605709E+01 0.38912964273E+01
 0.38913400129E+01 0.38944793950E+01 0.38981691388E+01 0.38983858101E+01 0.38916903315E+01
 0.40173057581E+01 0.41246332711E+01 0.42051514873E+01 0.42545086520E+01 0.42710988736E+01
 0.42545503125E+01 0.42051828756E+01 0.41246265550E+01 0.40172828492E+01 0.38918102717E+01
 0.37613334430E+01 0.36413975518E+01 0.35462836437E+01 0.34859339179E+01 0.34653556012E+01
 0.34859347346E+01 0.35462944866E+01 0.36414151034E+01 0.37613473321E+01 0.38918259803E+01
 0.44179518580E+01 0.46219475082E+01 0.47635393949E+01 0.48354348109E+01 0.48355362577E+01
 0.47637168327E+01 0.46219754634E+01 0.44177764546E+01 0.41677658848E+01 0.38983505761E+01
 0.36413975518E+01 0.34266569656E+01 0.32752052458E+01 0.31977515059E+01 0.31977528479E+01
 0.32751756384E+01 0.34265694025E+01 0.36413278761E+01 0.38984225005E+01 0.41679782387E+01
 0.50146946651E+01 0.52642073313E+01 0.54096049613E+01 0.54559497798E+01 0.54095887022E+01
 0.52642007627E+01 0.50147097301E+01 0.46794086894E+01 0.42919149168E+01 0.38980374654E+01
 0.35462836437E+01 0.32752052458E+01 0.31070856721E+01 0.30504965952E+01 0.31071151255E+01
 0.32752345485E+01 0.35462923285E+01 0.38980304557E+01 0.42918985198E+01 0.46793850638E+01
 0.56386197184E+01 0.57995602618E+01 0.58557720401E+01 0.58556533538E+01 0.57993647904E+01
 0.56386187895E+01 0.53271883745E+01 0.48815271910E+01 0.43802306309E+01 0.38943605709E+01
 0.34859339179E+01 0.31977515059E+01 0.30504965952E+01 0.30504609931E+01 0.31977198458E+01
 0.34860086716E+01 0.38944857887E+01 0.43802194844E+01 0.48813169117E+01 0.53269677916E+01
 0.58571085570E+01 0.57923017469E+01 0.57495271422E+01 0.57922745915E+01 0.58570557507E+01
 0.58016958055E+01 0.55155846596E+01 0.50127393382E+01 0.44313507344E+01 0.38912964273E+01
 0.34653556012E+01 0.31977528479E+01 0.31071151255E+01 0.31977198458E+01 0.34653137061E+01
 0.38912646782E+01 0.44313324349E+01 0.50127435872E+01 0.55156197338E+01 0.58017540237E+01
 0.52663267017E+01 0.49830148167E+01 0.49831195112E+01 0.52664666149E+01 0.56285368366E+01
 0.57941470287E+01 0.55949959218E+01 0.50742850674E+01 0.44478522314E+01 0.38913400129E+01
 0.34859347346E+01 0.32751756384E+01 0.32752345485E+01 0.34860086716E+01 0.38912646782E+01
 0.44476572047E+01 0.50742077809E+01 0.55951866199E+01 0.57944387295E+01 0.56286299994E+01
 0.38121315433E+01 0.35099054182E+01 0.38121828287E+01 0.45516994975E+01 0.53270497545E+01
 0.57390746278E+01 0.56132933161E+01 0.50741984571E+01 0.44313182536E+01 0.38944793950E+01
 0.35462944866E+01 0.34265694025E+01 0.35462923285E+01 0.38944857887E+01 0.44313324349E+01
 0.50742077809E+01 0.56132911217E+01 0.57390603836E+01 0.53270120566E+01 0.45516386836E+01
 0.19093466599E+01 0.19092853943E+01 0.27589182236E+01 0.40491301062E+01 0.51920667856E+01
 0.57391944731E+01 0.55950437102E+01 0.50125383647E+01 0.43801948578E+01 0.38981691388E+01
 0.36414151034E+01 0.36413278761E+01 0.38980304557E+01 0.43802194844E+01 0.50127435872E+01
 0.55951866199E+01 0.57390603836E+01 0.51917589885E+01 0.40489474075E+01 0.27589567285E+01
 0.29376643132E+00 0.87033159597E+00 0.23369048943E+01 0.40489987445E+01 0.53270246545E+01
 0.57944110638E+01 0.55156290152E+01 0.48813628824E+01 0.42919031509E+01 0.38983858101E+01
 0.37613473321E+01 0.38984225005E+01 0.42918985198E+01 0.48813169117E+01 0.55156197338E+01
 0.57944387295E+01 0.53270120566E+01 0.40489474075E+01 0.23368948969E+01 0.87036496984E+00
 -.33930289850E+00 0.87037156902E+00 0.27588383095E+01 0.45514231049E+01 0.56285237234E+01
 0.58019039213E+01 0.53272147602E+01 0.46794224215E+01 0.41677747837E+01 0.38916903315E+01
 0.38918259803E+01 0.41679782387E+01 0.46793850638E+01 0.53269677916E+01 0.58017540237E+01
 0.56286299994E+01 0.45516386836E+01 0.27589567285E+01 0.87036496984E+00 -.33932670690E+00
 0.27776098365E+01 0.40965692347E+01 0.52662616386E+01 0.58311436594E+01 0.56956529094E+01
 0.51163540158E+01 0.44850829800E+01 0.40034801780E+01 0.37468617535E+01 0.37467438239E+01
 0.40032853425E+01 0.44850494235E+01 0.51164435410E+01 0.56956139977E+01 0.58309270881E+01
 0.52661770749E+01 0.40969016901E+01 0.27781811736E+01 0.19093650141E+01 0.19090792124E+01
 0.40965692347E+01 0.51408193475E+01 0.57922498127E+01 0.58219766648E+01 0.53446067030E+01
 0.47002347107E+01 0.41500717363E+01 0.37904709252E+01 0.36664017874E+01 0.37904285223E+01
 0.41500266221E+01 0.47001883617E+01 0.53445119402E+01 0.58218395369E+01 0.57921962219E+01
 0.51409865167E+01 0.40969173784E+01 0.31432436839E+01 0.27589533950E+01 0.31429530006E+01
 0.52662616386E+01 0.57922498127E+01 0.58557824362E+01 0.54561379634E+01 0.48355613209E+01
 0.42544860861E+01 0.38235507426E+01 0.35974723678E+01 0.35975400789E+01 0.38236724464E+01
 0.42545142411E+01 0.48354386944E+01 0.54559394576E+01 0.58556386395E+01 0.57922666358E+01
 0.52664539008E+01 0.45516703853E+01 0.40490991297E+01 0.40489852407E+01 0.45514231370E+01
 0.58311436594E+01 0.58219766648E+01 0.54561379634E+01 0.48814919620E+01 0.43084805436E+01
 0.38443792506E+01 0.35485266056E+01 0.34476597767E+01 0.35485515796E+01 0.38444761207E+01
 0.43086187746E+01 0.48815080447E+01 0.54559070277E+01 0.58216404908E+01 0.58310384368E+01
 0.55430198322E+01 0.51921488162E+01 0.50378369544E+01 0.51918208904E+01 0.55427601581E+01
 0.56956529094E+01 0.53446067030E+01 0.48355613209E+01 0.43084805436E+01 0.38514473228E+01
 0.35235189299E+01 0.33545767232E+01 0.33545407960E+01 0.35234898624E+01 0.38515370183E+01
 0.43086457663E+01 0.48356173627E+01 0.53444600889E+01 0.56954368734E+01 0.58063728750E+01
 0.57391437317E+01 0.56444428025E+01 0.56443829984E+01 0.57390719120E+01 0.58064566263E+01
 0.51163540158E+01 0.47002347107E+01 0.42544860861E+01 0.38443792506E+01 0.35235189299E+01
 0.33232246852E+01 0.32556341873E+01 0.33231924201E+01 0.35234897812E+01 0.38443944327E+01
 0.42545711057E+01 0.47003727836E+01 0.51164450299E+01 0.54298003340E+01 0.55948901491E+01
 0.56462513021E+01 0.56523742726E+01 0.56465011214E+01 0.55951591996E+01 0.54298862339E+01
 0.44850829800E+01 0.41500717363E+01 0.38235507426E+01 0.35485266056E+01 0.33545767232E+01
 0.32556341873E+01 0.32556227844E+01 0.33545659401E+01 0.35485411230E+01 0.38235708736E+01
 0.41500745198E+01 0.44850767769E+01 0.47835756001E+01 0.50126639797E+01 0.51552154388E+01
 0.52178897258E+01 0.52179541820E+01 0.51553437007E+01 0.50127518505E+01 0.47836024183E+01
 0.40034801780E+01 0.37904709252E+01 0.35974723678E+01 0.34476597767E+01 0.33545407960E+01
 0.33231924201E+01 0.33545659401E+01 0.34477155512E+01 0.35975086148E+01 0.37904046895E+01
 0.40033106928E+01 0.42081797139E+01 0.43802426063E+01 0.45046994364E+01 0.45776733375E+01
 0.46013691628E+01 0.45775566252E+01 0.45045829867E+01 0.43802551931E+01 0.42083316893E+01
 0.37468617535E+01 0.36664017874E+01 0.35975400789E+01 0.35485515796E+01 0.35234898624E+01
 0.35234897812E+01 0.35485411230E+01 0.35975086148E+01 0.36663646278E+01 0.37468469886E+01
 0.38276692107E+01 0.38980506612E+01 0.39511511705E+01 0.39850848314E+01 0.40011993902E+01
 0.40011933311E+01 0.39850680730E+01 0.39511257584E+01 0.38980221636E+01 0.38276541199E+01
 0.37467438239E+01 0.37904285223E+01 0.38236724464E+01 0.38444761207E+01 0.38515370183E+01
 0.38443944327E+01 0.38235708736E+01 0.37904046895E+01 0.37468469886E+01 0.36957290293E+01
 0.36413820288E+01 0.35897399077E+01 0.35473185659E+01 0.35196171376E+01 0.35100411170E+01
 0.35196889436E+01 0.35474124976E+01 0.35897663181E+01 0.36412856564E+01 0.36955659151E+01
 0.40032853425E+01 0.41500266221E+01 0.42545142411E+01 0.43086187746E+01 0.43086457663E+01
 0.42545711057E+01 0.41500745198E+01 0.40033106928E+01 0.38276692107E+01 0.36413820288E+01
 0.34651198197E+01 0.33179848517E+01 0.32138810663E+01 0.31604048639E+01 0.31603952062E+01
 0.32138754738E+01 0.33180130646E+01 0.34651671835E+01 0.36414111315E+01 0.38276677718E+01
 0.44850494235E+01 0.47001883617E+01 0.48354386944E+01 0.48815080447E+01 0.48356173627E+01
 0.47003727836E+01 0.44850767769E+01 0.42081797139E+01 0.38980506612E+01 0.35897399077E+01
 0.33179848517E+01 0.31097947931E+01 0.29808701160E+01 0.29374550198E+01 0.29808530658E+01
 0.31097572958E+01 0.33179617653E+01 0.35897954920E+01 0.38981937225E+01 0.42083050277E+01
 0.51164435410E+01 0.53445119402E+01 0.54559394576E+01 0.54559070277E+01 0.53444600889E+01
 0.51164450299E+01 0.47835756001E+01 0.43802426063E+01 0.39511511705E+01 0.35473185659E+01
 0.32138810663E+01 0.29808701160E+01 0.28623487950E+01 0.28623548796E+01 0.29808848085E+01
 0.32138969510E+01 0.35473226088E+01 0.39511230740E+01 0.43801762199E+01 0.47835131659E+01
 0.56956139977E+01 0.58218395369E+01 0.58556386395E+01 0.58216404908E+01 0.56954368734E+01
 0.54298003340E+01 0.50126639797E+01 0.45046994364E+01 0.39850848314E+01 0.35196171376E+01
 0.31604048639E+01 0.29374550198E+01 0.28623548796E+01 0.29374552726E+01 0.31604363917E+01
 0.35196638400E+01 0.39850594829E+01 0.45045483545E+01 0.50124864126E+01 0.54297754469E+01
 0.58309270881E+01 0.57921962219E+01 0.57922666358E+01 0.58310384368E+01 0.58063728750E+01
 0.55948901491E+01 0.51552154388E+01 0.45776733375E+01 0.40011993902E+01 0.35100411170E+01
 0.31603952062E+01 0.29808530658E+01 0.29808848085E+01 0.31604363917E+01 0.35100123942E+01
 0.40011230959E+01 0.45776688131E+01 0.51553372368E+01 0.55950299791E+01 0.58063835764E+01
 0.52661770749E+01 0.51409865167E+01 0.52664539008E+01 0.55430198322E+01 0.57391437317E+01
 0.56462513021E+01 0.52178897258E+01 0.46013691628E+01 0.40011933311E+01 0.35196889436E+01
 0.32138754738E+01 0.31097572958E+01 0.32138969510E+01 0.35196638400E+01 0.40011230959E+01
 0.46013848100E+01 0.52180930697E+01 0.56465205115E+01 0.57392087900E+01 0.55427878876E+01
 0.40969016901E+01 0.40969173784E+01 0.45516703853E+01 0.51921488162E+01 0.56444428025E+01
 0.56523742726E+01 0.52179541820E+01 0.45775566252E+01 0.39850680730E+01 0.35474124976E+01
 0.33180130646E+01 0.33179617653E+01 0.35473226088E+01 0.39850594829E+01 0.45776688131E+01
 0.52180930697E+01 0.56524150960E+01 0.56443649117E+01 0.51920388839E+01 0.45516067796E+01
 0.27781811736E+01 0.31432436839E+01 0.40490991297E+01 0.50378369544E+01 0.56443829984E+01
 0.56465011214E+01 0.51553437007E+01 0.45045829867E+01 0.39511257584E+01 0.35897663181E+01
 0.34651671835E+01 0.35897954920E+01 0.39511230740E+01 0.45045483545E+01 0.51553372368E+01
 0.56465205115E+01 0.56443649117E+01 0.50377822999E+01 0.40490749193E+01 0.31432588023E+01
 0.19093650141E+01 0.27589533950E+01 0.40489852407E+01 0.51918208904E+01 0.57390719120E+01
 0.55951591996E+01 0.50127518505E+01 0.43802551931E+01 0.38980221636E+01 0.36412856564E+01
 0.36414111315E+01 0.38981937225E+01 0.43801762199E+01 0.50124864126E+01 0.55950299791E+01
 0.57392087900E+01 0.51920388839E+01 0.40490749193E+01 0.27589147792E+01 0.19093289954E+01
 0.19090792124E+01 0.31429530006E+01 0.45514231370E+01 0.55427601581E+01 0.58064566263E+01
 0.54298862339E+01 0.47836024183E+01 0.42083316893E+01 0.38276541199E+01 0.36955659151E+01
 0.38276677718E+01 0.42083050277E+01 0.47835131659E+01 0.54297754469E+01 0.58063835764E+01
 0.55427878876E+01 0.45516067796E+01 0.31432588023E+01 0.19093289954E+01 0.14198518878E+01
 0.47890981953E+01 0.55023414552E+01 0.58570842537E+01 0.56956751643E+01 0.51491378792E+01
 0.45175508088E+01 0.39925000680E+01 0.36528531567E+01 0.35362176340E+01 0.36528118564E+01
 0.39924904923E+01 0.45175915345E+01 0.51491648719E+01 0.56956589157E+01 0.58570803117E+01
 0.55024012324E+01 0.47891933648E+01 0.40969052878E+01 0.38121554291E+01 0.40968398338E+01
 0.55023414552E+01 0.58591543538E+01 0.57993864043E+01 0.53446231425E+01 0.47263114764E+01
 0.41621624243E+01 0.37469992789E+01 0.35301243315E+01 0.35301915436E+01 0.37471056708E+01