   1   1   1   0
  0.1482975E+02  0.2757716E-09  0.2757716E-09  0.2757716E-09  0.5000000E-15
  1.000000000000000E-004
  CAR 
 fcc Si                                  
     29.34303268     -6.37837584  301      9.89510324      1.00000000
     -6.378  0.0000E+00  0.0000E+00
     -6.259  0.0000E+00  0.0000E+00
     -6.140  0.0000E+00  0.0000E+00
     -6.021  0.0000E+00  0.0000E+00
     -5.902  0.0000E+00  0.0000E+00
     -5.783  0.0000E+00  0.0000E+00
     -5.664  0.0000E+00  0.0000E+00
     -5.545  0.0000E+00  0.0000E+00
     -5.426  0.0000E+00  0.0000E+00
     -5.307  0.0000E+00  0.0000E+00
     -5.188  0.0000E+00  0.0000E+00
     -5.069  0.0000E+00  0.0000E+00
     -4.950  0.0000E+00  0.0000E+00
     -4.830  0.0000E+00  0.0000E+00
     -4.711  0.0000E+00  0.0000E+00
     -4.592  0.0000E+00  0.0000E+00
     -4.473  0.0000E+00  0.0000E+00
     -4.354  0.4108E-02  0.3315E-04
     -4.235  0.3627E-01  0.2966E-02
     -4.116  0.5101E-01  0.8403E-02
     -3.997  0.6479E-01  0.1528E-01
     -3.878  0.7352E-01  0.2357E-01
     -3.759  0.8232E-01  0.3282E-01
     -3.640  0.9148E-01  0.4321E-01
     -3.521  0.9737E-01  0.5442E-01
     -3.402  0.1044E+00  0.6642E-01
     -3.283  0.1121E+00  0.7931E-01
     -3.163  0.1170E+00  0.9295E-01
     -3.044  0.1225E+00  0.1072E+00
     -2.925  0.1284E+00  0.1221E+00
     -2.806  0.1347E+00  0.1378E+00
     -2.687  0.1390E+00  0.1541E+00
     -2.568  0.1435E+00  0.1709E+00
     -2.449  0.1485E+00  0.1883E+00
     -2.330  0.1537E+00  0.2063E+00
     -2.211  0.1585E+00  0.2249E+00
     -2.092  0.1623E+00  0.2440E+00
     -1.973  0.1665E+00  0.2636E+00
     -1.854  0.1707E+00  0.2837E+00
     -1.735  0.1753E+00  0.3043E+00
     -1.616  0.1799E+00  0.3254E+00
     -1.496  0.1834E+00  0.3470E+00
     -1.377  0.1870E+00  0.3691E+00
     -1.258  0.1908E+00  0.3916E+00
     -1.139  0.1947E+00  0.4145E+00
     -1.020  0.1987E+00  0.4379E+00
     -0.901  0.2028E+00  0.4618E+00
     -0.782  0.2062E+00  0.4862E+00
     -0.663  0.2094E+00  0.5109E+00
     -0.544  0.2128E+00  0.5361E+00
     -0.425  0.2163E+00  0.5616E+00
     -0.306  0.2200E+00  0.5876E+00
     -0.187  0.2236E+00  0.6140E+00
     -0.068  0.2274E+00  0.6409E+00
      0.051  0.2304E+00  0.6681E+00
      0.171  0.2335E+00  0.6957E+00
      0.290  0.2367E+00  0.7237E+00
      0.409  0.2400E+00  0.7521E+00
      0.528  0.2434E+00  0.7809E+00
      0.647  0.2469E+00  0.8101E+00
      0.766  0.2504E+00  0.8397E+00
      0.885  0.2536E+00  0.8697E+00
      1.004  0.2567E+00  0.9001E+00
      1.123  0.2599E+00  0.9309E+00
      1.242  0.2632E+00  0.9620E+00
      1.361  0.2667E+00  0.9935E+00
      1.480  0.2704E+00  0.1026E+01
      1.599  0.2744E+00  0.1058E+01
      1.718  0.2790E+00  0.1091E+01
      1.838  0.2844E+00  0.1124E+01
      1.957  0.2916E+00  0.1159E+01
      2.076  0.3027E+00  0.1194E+01
      2.195  0.3269E+00  0.1231E+01
      2.314  0.3088E+00  0.1270E+01
      2.433  0.3011E+00  0.1306E+01
      2.552  0.3041E+00  0.1343E+01
      2.671  0.2948E+00  0.1380E+01
      2.790  0.2827E+00  0.1414E+01
      2.909  0.2735E+00  0.1447E+01
      3.028  0.2704E+00  0.1479E+01
      3.147  0.2734E+00  0.1513E+01
      3.266  0.2711E+00  0.1545E+01
      3.385  0.2890E+00  0.1578E+01
      3.505  0.3010E+00  0.1613E+01
      3.624  0.2937E+00  0.1650E+01
      3.743  0.2994E+00  0.1685E+01
      3.862  0.3149E+00  0.1721E+01
      3.981  0.3248E+00  0.1761E+01
      4.100  0.3360E+00  0.1800E+01
      4.219  0.3247E+00  0.1840E+01
      4.338  0.3330E+00  0.1879E+01
      4.457  0.3457E+00  0.1920E+01
      4.576  0.3614E+00  0.1962E+01
      4.695  0.3518E+00  0.2005E+01
      4.814  0.3373E+00  0.2046E+01
      4.933  0.3429E+00  0.2086E+01
      5.052  0.3439E+00  0.2127E+01
      5.172  0.3320E+00  0.2168E+01
      5.291  0.3199E+00  0.2207E+01
      5.410  0.3209E+00  0.2244E+01
      5.529  0.3191E+00  0.2283E+01
      5.648  0.3166E+00  0.2320E+01
      5.767  0.3229E+00  0.2358E+01
      5.886  0.3483E+00  0.2398E+01
      6.005  0.3823E+00  0.2442E+01
      6.124  0.4141E+00  0.2490E+01
      6.243  0.4141E+00  0.2540E+01
      6.362  0.4004E+00  0.2588E+01
      6.481  0.4135E+00  0.2636E+01
      6.600  0.3981E+00  0.2684E+01
      6.719  0.3637E+00  0.2729E+01
      6.839  0.3582E+00  0.2772E+01
      6.958  0.3490E+00  0.2814E+01
      7.077  0.3454E+00  0.2855E+01
      7.196  0.3413E+00  0.2898E+01
      7.315  0.3448E+00  0.2938E+01
      7.434  0.4038E+00  0.2982E+01
      7.553  0.3879E+00  0.3030E+01
      7.672  0.3923E+00  0.3077E+01
      7.791  0.4011E+00  0.3124E+01
      7.910  0.4089E+00  0.3172E+01
      8.029  0.4183E+00  0.3221E+01
      8.148  0.4096E+00  0.3270E+01
      8.267  0.4155E+00  0.3319E+01
      8.386  0.4229E+00  0.3370E+01
      8.506  0.3936E+00  0.3417E+01
      8.625  0.3925E+00  0.3464E+01
      8.744  0.4028E+00  0.3512E+01
      8.863  0.4040E+00  0.3560E+01
      8.982  0.4086E+00  0.3608E+01
      9.101  0.4198E+00  0.3658E+01
      9.220  0.4192E+00  0.3708E+01
      9.339  0.4298E+00  0.3759E+01
      9.458  0.4257E+00  0.3810E+01
      9.577  0.4329E+00  0.3861E+01
      9.696  0.4373E+00  0.3913E+01
      9.815  0.4375E+00  0.3965E+01
      9.934  0.4424E+00  0.4017E+01
     10.053  0.4409E+00  0.4070E+01
     10.173  0.4460E+00  0.4123E+01
     10.292  0.4407E+00  0.4176E+01
     10.411  0.4396E+00  0.4228E+01
     10.530  0.4475E+00  0.4281E+01
     10.649  0.4544E+00  0.4335E+01
     10.768  0.4534E+00  0.4389E+01
     10.887  0.4621E+00  0.4444E+01
     11.006  0.4677E+00  0.4499E+01
     11.125  0.4695E+00  0.4555E+01
     11.244  0.4805E+00  0.4611E+01
     11.363  0.4774E+00  0.4669E+01
     11.482  0.4742E+00  0.4725E+01
     11.601  0.4799E+00  0.4782E+01
     11.720  0.4827E+00  0.4839E+01
     11.840  0.4900E+00  0.4897E+01
     11.959  0.4940E+00  0.4956E+01
     12.078  0.5036E+00  0.5015E+01
     12.197  0.5057E+00  0.5075E+01
     12.316  0.5108E+00  0.5136E+01
     12.435  0.5270E+00  0.5197E+01
     12.554  0.5291E+00  0.5260E+01
     12.673  0.5504E+00  0.5324E+01
     12.792  0.5652E+00  0.5391E+01
     12.911  0.5779E+00  0.5459E+01
     13.030  0.5986E+00  0.5529E+01
     13.149  0.5871E+00  0.5601E+01
     13.268  0.5810E+00  0.5670E+01
     13.387  0.5667E+00  0.5739E+01
     13.507  0.5545E+00  0.5805E+01
     13.626  0.5463E+00  0.5871E+01
     13.745  0.5414E+00  0.5936E+01
     13.864  0.5323E+00  0.6000E+01
     13.983  0.5229E+00  0.6063E+01
     14.102  0.5126E+00  0.6124E+01
     14.221  0.5054E+00  0.6185E+01
     14.340  0.4984E+00  0.6245E+01
     14.459  0.4898E+00  0.6303E+01
     14.578  0.4826E+00  0.6361E+01
     14.697  0.4791E+00  0.6418E+01
     14.816  0.4791E+00  0.6476E+01
     14.935  0.4774E+00  0.6533E+01
     15.054  0.4720E+00  0.6589E+01
     15.174  0.4681E+00  0.6645E+01
     15.293  0.4656E+00  0.6701E+01
     15.412  0.4631E+00  0.6756E+01
     15.531  0.4631E+00  0.6811E+01
     15.650  0.4663E+00  0.6866E+01
     15.769  0.4695E+00  0.6922E+01
     15.888  0.4691E+00  0.6978E+01
     16.007  0.4707E+00  0.7034E+01
     16.126  0.4727E+00  0.7090E+01
     16.245  0.4753E+00  0.7146E+01
     16.364  0.4775E+00  0.7203E+01
     16.483  0.4797E+00  0.7260E+01
     16.602  0.4820E+00  0.7317E+01
     16.721  0.4894E+00  0.7375E+01
     16.841  0.4955E+00  0.7434E+01
     16.960  0.5054E+00  0.7493E+01
     17.079  0.5132E+00  0.7554E+01
     17.198  0.5160E+00  0.7615E+01
     17.317  0.5154E+00  0.7677E+01
     17.436  0.5177E+00  0.7738E+01
     17.555  0.5202E+00  0.7800E+01
     17.674  0.5209E+00  0.7862E+01
     17.793  0.5256E+00  0.7924E+01
     17.912  0.5325E+00  0.7987E+01
     18.031  0.5366E+00  0.8051E+01
     18.150  0.5403E+00  0.8115E+01
     18.269  0.5303E+00  0.8179E+01
     18.388  0.5279E+00  0.8242E+01
     18.508  0.5254E+00  0.8304E+01
     18.627  0.5250E+00  0.8367E+01
     18.746  0.5267E+00  0.8429E+01
     18.865  0.5270E+00  0.8492E+01
     18.984  0.5270E+00  0.8555E+01
     19.103  0.5333E+00  0.8618E+01
     19.222  0.5379E+00  0.8682E+01
     19.341  0.5392E+00  0.8746E+01
     19.460  0.5425E+00  0.8810E+01
     19.579  0.5448E+00  0.8875E+01
     19.698  0.5512E+00  0.8940E+01
     19.817  0.5589E+00  0.9006E+01
     19.936  0.5691E+00  0.9074E+01
     20.055  0.5825E+00  0.9142E+01
     20.175  0.6037E+00  0.9213E+01
     20.294  0.6338E+00  0.9286E+01
     20.413  0.6673E+00  0.9364E+01
     20.532  0.6975E+00  0.9445E+01
     20.651  0.6509E+00  0.9527E+01
     20.770  0.6459E+00  0.9604E+01
     20.889  0.6008E+00  0.9679E+01
     21.008  0.5684E+00  0.9748E+01
     21.127  0.5616E+00  0.9815E+01
     21.246  0.5659E+00  0.9883E+01
     21.365  0.5763E+00  0.9950E+01
     21.484  0.5856E+00  0.1002E+02
     21.603  0.5647E+00  0.1009E+02
     21.722  0.5443E+00  0.1016E+02
     21.842  0.5700E+00  0.1022E+02
     21.961  0.5661E+00  0.1029E+02
     22.080  0.5449E+00  0.1036E+02
     22.199  0.5547E+00  0.1042E+02
     22.318  0.5419E+00  0.1049E+02
     22.437  0.5179E+00  0.1055E+02
     22.556  0.5287E+00  0.1061E+02
     22.675  0.5618E+00  0.1068E+02
     22.794  0.5611E+00  0.1074E+02
     22.913  0.6206E+00  0.1081E+02
     23.032  0.6413E+00  0.1089E+02
     23.151  0.6312E+00  0.1097E+02
     23.270  0.6557E+00  0.1104E+02
     23.389  0.6802E+00  0.1112E+02
     23.509  0.6585E+00  0.1120E+02
     23.628  0.6757E+00  0.1128E+02
     23.747  0.6903E+00  0.1136E+02
     23.866  0.6445E+00  0.1144E+02
     23.985  0.5030E+00  0.1151E+02
     24.104  0.4286E+00  0.1157E+02
     24.223  0.3797E+00  0.1162E+02
     24.342  0.3354E+00  0.1166E+02
     24.461  0.2909E+00  0.1170E+02
     24.580  0.2497E+00  0.1173E+02
     24.699  0.2162E+00  0.1176E+02
     24.818  0.1971E+00  0.1178E+02
     24.937  0.1836E+00  0.1180E+02
     25.056  0.1737E+00  0.1183E+02
     25.176  0.1713E+00  0.1185E+02
     25.295  0.1576E+00  0.1187E+02
     25.414  0.1455E+00  0.1188E+02
     25.533  0.1253E+00  0.1190E+02
     25.652  0.1046E+00  0.1191E+02
     25.771  0.9379E-01  0.1193E+02
     25.890  0.8279E-01  0.1194E+02
     26.009  0.7341E-01  0.1195E+02
     26.128  0.6549E-01  0.1195E+02
     26.247  0.5788E-01  0.1196E+02
     26.366  0.5097E-01  0.1197E+02
     26.485  0.4455E-01  0.1197E+02
     26.604  0.3859E-01  0.1198E+02
     26.723  0.3331E-01  0.1198E+02
     26.843  0.2911E-01  0.1199E+02
     26.962  0.2635E-01  0.1199E+02
     27.081  0.3137E-01  0.1199E+02
     27.200  0.2757E-01  0.1200E+02
     27.319  0.9178E-02  0.1200E+02
     27.438  0.0000E+00  0.1200E+02
     27.557  0.0000E+00  0.1200E+02
     27.676  0.0000E+00  0.1200E+02
     27.795  0.0000E+00  0.1200E+02
     27.914  0.0000E+00  0.1200E+02
     28.033  0.0000E+00  0.1200E+02
     28.152  0.0000E+00  0.1200E+02
     28.271  0.0000E+00  0.1200E+02
     28.390  0.0000E+00  0.1200E+02
     28.510  0.0000E+00  0.1200E+02
     28.629  0.0000E+00  0.1200E+02
     28.748  0.0000E+00  0.1200E+02
     28.867  0.0000E+00  0.1200E+02
     28.986  0.0000E+00  0.1200E+02
     29.105  0.0000E+00  0.1200E+02
     29.224  0.0000E+00  0.1200E+02
     29.343  0.0000E+00  0.1200E+02
     29.34303268     -6.37837584  301      9.89510324      1.00000000
     -6.378  0.0000E+00  0.0000E+00  0.0000E+00  0.0000E+00  0.0000E+00  0.0000E+00  0.0000E+00  0.0000E+00  0.0000E+00
     -6.259  0.0000E+00  0.0000E+00  0.0000E+00  0.0000E+00  0.0000E+00  0.0000E+00  0.0000E+00  0.0000E+00  0.0000E+00
     -6.140  0.0000E+00  0.0000E+00  0.0000E+00  0.0000E+00  0.0000E+00  0.0000E+00  0.0000E+00  0.0000E+00  0.0000E+00
     -6.021  0.0000E+00  0.0000E+00  0.0000E+00  0.0000E+00  0.0000E+00  0.0000E+00  0.0000E+00  0.0000E+00  0.0000E+00
     -5.902  0.0000E+00  0.0000E+00  0.0000E+00  0.0000E+00  0.0000E+00  0.0000E+00  0.0000E+00  0.0000E+00  0.0000E+00
     -5.783  0.0000E+00  0.0000E+00  0.0000E+00  0.0000E+00  0.0000E+00  0.0000E+00  0.0000E+00  0.0000E+00  0.0000E+00
     -5.664  0.0000E+00  0.0000E+00  0.0000E+00  0.0000E+00  0.0000E+00  0.0000E+00  0.0000E+00  0.0000E+00  0.0000E+00
     -5.545  0.0000E+00  0.0000E+00  0.0000E+00  0.0000E+00  0.0000E+00  0.0000E+00  0.0000E+00  0.0000E+00  0.0000E+00
     -5.426  0.0000E+00  0.0000E+00  0.0000E+00  0.0000E+00  0.0000E+00  0.0000E+00  0.0000E+00  0.0000E+00  0.0000E+00
     -5.307  0.0000E+00  0.0000E+00  0.0000E+00  0.0000E+00  0.0000E+00  0.0000E+00  0.0000E+00  0.0000E+00  0.0000E+00
     -5.188  0.0000E+00  0.0000E+00  0.0000E+00  0.0000E+00  0.0000E+00  0.0000E+00  0.0000E+00  0.0000E+00  0.0000E+00
     -5.069  0.0000E+00  0.0000E+00  0.0000E+00  0.0000E+00  0.0000E+00  0.0000E+00  0.0000E+00  0.0000E+00  0.0000E+00
     -4.950  0.0000E+00  0.0000E+00  0.0000E+00  0.0000E+00  0.0000E+00  0.0000E+00  0.0000E+00  0.0000E+00  0.0000E+00
     -4.830  0.0000E+00  0.0000E+00  0.0000E+00  0.0000E+00  0.0000E+00  0.0000E+00  0.0000E+00  0.0000E+00  0.0000E+00
     -4.711  0.0000E+00  0.0000E+00  0.0000E+00  0.0000E+00  0.0000E+00  0.0000E+00  0.0000E+00  0.0000E+00  0.0000E+00
     -4.592  0.0000E+00  0.0000E+00  0.0000E+00  0.0000E+00  0.0000E+00  0.0000E+00  0.0000E+00  0.0000E+00  0.0000E+00
     -4.473  0.0000E+00  0.0000E+00  0.0000E+00  0.0000E+00  0.0000E+00  0.0000E+00  0.0000E+00  0.0000E+00  0.0000E+00
     -4.354  0.1574E-02  0.3499E-05  0.1166E-05  0.1166E-05  0.0000E+00  0.0000E+00  0.0000E+00  0.0000E+00  0.0000E+00
     -4.235  0.1382E-01  0.7770E-04  0.3440E-04  0.3440E-04  0.0000E+00  0.0000E+00  0.0000E+00  0.0000E+00  0.0000E+00
     -4.116  0.1929E-01  0.1917E-03  0.8444E-04  0.9733E-04  0.0000E+00  0.0000E+00  0.0000E+00  0.0000E+00  0.0000E+00
     -3.997  0.2437E-01  0.3660E-03  0.1181E-03  0.1437E-03  0.0000E+00  0.0000E+00  0.0000E+00  0.0000E+00  0.0000E+00
     -3.878  0.2743E-01  0.5593E-03  0.1690E-03  0.2316E-03  0.0000E+00  0.0000E+00  0.0000E+00  0.0000E+00  0.0000E+00
     -3.759  0.3050E-01  0.7791E-03  0.2171E-03  0.3131E-03  0.0000E+00  0.0000E+00  0.0000E+00  0.0000E+00  0.0000E+00
     -3.640  0.3368E-01  0.1008E-02  0.2893E-03  0.3879E-03  0.0000E+00  0.0000E+00  0.0000E+00  0.0000E+00  0.0000E+00
     -3.521  0.3555E-01  0.1213E-02  0.4126E-03  0.5021E-03  0.0000E+00  0.0000E+00  0.0000E+00  0.0000E+00  0.0000E+00
     -3.402  0.3783E-01  0.1455E-02  0.4982E-03  0.6149E-03  0.0000E+00  0.0000E+00  0.0000E+00  0.0000E+00  0.0000E+00
     -3.283  0.4042E-01  0.1732E-02  0.5810E-03  0.6981E-03  0.0000E+00  0.0000E+00  0.0000E+00  0.0000E+00  0.0000E+00
     -3.163  0.4180E-01  0.1921E-02  0.7966E-03  0.8239E-03  0.0000E+00  0.0000E+00  0.0000E+00  0.0000E+00  0.0000E+00
     -3.044  0.4346E-01  0.2219E-02  0.8939E-03  0.9499E-03  0.0000E+00  0.0000E+00  0.0000E+00  0.0000E+00  0.0000E+00
     -2.925  0.4524E-01  0.2540E-02  0.9676E-03  0.1081E-02  0.0000E+00  0.0000E+00  0.0000E+00  0.0000E+00  0.0000E+00
     -2.806  0.4717E-01  0.2864E-02  0.1060E-02  0.1193E-02  0.0000E+00  0.0000E+00  0.0000E+00  0.0000E+00  0.0000E+00
     -2.687  0.4829E-01  0.3161E-02  0.1232E-02  0.1330E-02  0.0000E+00  0.0000E+00  0.0000E+00  0.0000E+00  0.0000E+00
     -2.568  0.4945E-01  0.3446E-02  0.1418E-02  0.1470E-02  0.0000E+00  0.0000E+00  0.0000E+00  0.0000E+00  0.0000E+00
     -2.449  0.5083E-01  0.3836E-02  0.1489E-02  0.1607E-02  0.0000E+00  0.0000E+00  0.0000E+00  0.0000E+00  0.0000E+00
     -2.330  0.5228E-01  0.4229E-02  0.1558E-02  0.1749E-02  0.0000E+00  0.0000E+00  0.0000E+00  0.0000E+00  0.0000E+00
     -2.211  0.5355E-01  0.4616E-02  0.1660E-02  0.1897E-02  0.0000E+00  0.0000E+00  0.0000E+00  0.0000E+00  0.0000E+00
     -2.092  0.5440E-01  0.4955E-02  0.1849E-02  0.2055E-02  0.0000E+00  0.0000E+00  0.0000E+00  0.0000E+00  0.0000E+00
     -1.973  0.5541E-01  0.5237E-02  0.2098E-02  0.2201E-02  0.0000E+00  0.0000E+00  0.0000E+00  0.0000E+00  0.0000E+00
     -1.854  0.5642E-01  0.5577E-02  0.2291E-02  0.2352E-02  0.0000E+00  0.0000E+00  0.0000E+00  0.0000E+00  0.0000E+00
     -1.735  0.5756E-01  0.5998E-02  0.2398E-02  0.2500E-02  0.0000E+00  0.0000E+00  0.0000E+00  0.0000E+00  0.0000E+00
     -1.616  0.5873E-01  0.6427E-02  0.2498E-02  0.2653E-02  0.0000E+00  0.0000E+00  0.0000E+00  0.0000E+00  0.0000E+00
     -1.496  0.5941E-01  0.6827E-02  0.2663E-02  0.2839E-02  0.0000E+00  0.0000E+00  0.0000E+00  0.0000E+00  0.0000E+00
     -1.377  0.6012E-01  0.7134E-02  0.2936E-02  0.3011E-02  0.0000E+00  0.0000E+00  0.0000E+00  0.0000E+00  0.0000E+00
     -1.258  0.6091E-01  0.7471E-02  0.3183E-02  0.3170E-02  0.0000E+00  0.0000E+00  0.0000E+00  0.0000E+00  0.0000E+00
     -1.139  0.6174E-01  0.7861E-02  0.3382E-02  0.3326E-02  0.0000E+00  0.0000E+00  0.0000E+00  0.0000E+00  0.0000E+00
     -1.020  0.6262E-01  0.8295E-02  0.3535E-02  0.3482E-02  0.0000E+00  0.0000E+00  0.0000E+00  0.0000E+00  0.0000E+00
     -0.901  0.6355E-01  0.8775E-02  0.3638E-02  0.3638E-02  0.0000E+00  0.0000E+00  0.0000E+00  0.0000E+00  0.0000E+00
     -0.782  0.6413E-01  0.9263E-02  0.3762E-02  0.3826E-02  0.0000E+00  0.0000E+00  0.0000E+00  0.0000E+00  0.0000E+00
     -0.663  0.6467E-01  0.9676E-02  0.3966E-02  0.4018E-02  0.0000E+00  0.0000E+00  0.0000E+00  0.0000E+00  0.0000E+00
     -0.544  0.6527E-01  0.1006E-01  0.4210E-02  0.4194E-02  0.0000E+00  0.0000E+00  0.0000E+00  0.0000E+00  0.0000E+00
     -0.425  0.6592E-01  0.1050E-01  0.4395E-02  0.4360E-02  0.0000E+00  0.0000E+00  0.0000E+00  0.0000E+00  0.0000E+00
     -0.306  0.6663E-01  0.1095E-01  0.4568E-02  0.4518E-02  0.0000E+00  0.0000E+00  0.0000E+00  0.0000E+00  0.0000E+00
     -0.187  0.6733E-01  0.1142E-01  0.4743E-02  0.4674E-02  0.0000E+00  0.0000E+00  0.0000E+00  0.0000E+00  0.0000E+00
     -0.068  0.6808E-01  0.1192E-01  0.4869E-02  0.4829E-02  0.0000E+00  0.0000E+00  0.0000E+00  0.0000E+00  0.0000E+00
      0.051  0.6851E-01  0.1245E-01  0.4993E-02  0.5014E-02  0.0000E+00  0.0000E+00  0.0000E+00  0.0000E+00  0.0000E+00
      0.171  0.6896E-01  0.1296E-01  0.5140E-02  0.5200E-02  0.0000E+00  0.0000E+00  0.0000E+00  0.0000E+00  0.0000E+00
      0.290  0.6948E-01  0.1335E-01  0.5396E-02  0.5380E-02  0.0000E+00  0.0000E+00  0.0000E+00  0.0000E+00  0.0000E+00
      0.409  0.7004E-01  0.1373E-01  0.5669E-02  0.5547E-02  0.0000E+00  0.0000E+00  0.0000E+00  0.0000E+00  0.0000E+00
      0.528  0.7065E-01  0.1419E-01  0.5856E-02  0.5701E-02  0.0000E+00  0.0000E+00  0.0000E+00  0.0000E+00  0.0000E+00
      0.647  0.7131E-01  0.1468E-01  0.6022E-02  0.5847E-02  0.0000E+00  0.0000E+00  0.0000E+00  0.0000E+00  0.0000E+00
      0.766  0.7200E-01  0.1515E-01  0.6203E-02  0.5987E-02  0.0000E+00  0.0000E+00  0.0000E+00  0.0000E+00  0.0000E+00
      0.885  0.7255E-01  0.1563E-01  0.6389E-02  0.6138E-02  0.0000E+00  0.0000E+00  0.0000E+00  0.0000E+00  0.0000E+00
      1.004  0.7306E-01  0.1615E-01  0.6535E-02  0.6292E-02  0.0000E+00  0.0000E+00  0.0000E+00  0.0000E+00  0.0000E+00
      1.123  0.7365E-01  0.1663E-01  0.6702E-02  0.6438E-02  0.0000E+00  0.0000E+00  0.0000E+00  0.0000E+00  0.0000E+00
      1.242  0.7432E-01  0.1700E-01  0.6967E-02  0.6577E-02  0.0000E+00  0.0000E+00  0.0000E+00  0.0000E+00  0.0000E+00
      1.361  0.7511E-01  0.1738E-01  0.7211E-02  0.6703E-02  0.0000E+00  0.0000E+00  0.0000E+00  0.0000E+00  0.0000E+00
      1.480  0.7604E-01  0.1780E-01  0.7400E-02  0.6806E-02  0.0000E+00  0.0000E+00  0.0000E+00  0.0000E+00  0.0000E+00
      1.599  0.7719E-01  0.1832E-01  0.7465E-02  0.6885E-02  0.0000E+00  0.0000E+00  0.0000E+00  0.0000E+00  0.0000E+00
      1.718  0.7866E-01  0.1883E-01  0.7529E-02  0.6945E-02  0.0000E+00  0.0000E+00  0.0000E+00  0.0000E+00  0.0000E+00
      1.838  0.8046E-01  0.1932E-01  0.7624E-02  0.7014E-02  0.0000E+00  0.0000E+00  0.0000E+00  0.0000E+00  0.0000E+00
      1.957  0.8306E-01  0.1985E-01  0.7743E-02  0.7102E-02  0.0000E+00  0.0000E+00  0.0000E+00  0.0000E+00  0.0000E+00
      2.076  0.8722E-01  0.2042E-01  0.7900E-02  0.7220E-02  0.0000E+00  0.0000E+00  0.0000E+00  0.0000E+00  0.0000E+00
      2.195  0.9645E-01  0.2134E-01  0.8206E-02  0.7516E-02  0.0000E+00  0.0000E+00  0.0000E+00  0.0000E+00  0.0000E+00
      2.314  0.8958E-01  0.2124E-01  0.8039E-02  0.7111E-02  0.0000E+00  0.0000E+00  0.0000E+00  0.0000E+00  0.0000E+00
      2.433  0.8670E-01  0.2132E-01  0.8023E-02  0.6880E-02  0.0000E+00  0.0000E+00  0.0000E+00  0.0000E+00  0.0000E+00
      2.552  0.8781E-01  0.2182E-01  0.8076E-02  0.6814E-02  0.0000E+00  0.0000E+00  0.0000E+00  0.0000E+00  0.0000E+00
      2.671  0.8428E-01  0.2222E-01  0.7733E-02  0.6534E-02  0.0000E+00  0.0000E+00  0.0000E+00  0.0000E+00  0.0000E+00
      2.790  0.7975E-01  0.2217E-01  0.7552E-02  0.6258E-02  0.0000E+00  0.0000E+00  0.0000E+00  0.0000E+00  0.0000E+00
      2.909  0.7628E-01  0.2224E-01  0.7405E-02  0.6026E-02  0.0000E+00  0.0000E+00  0.0000E+00  0.0000E+00  0.0000E+00
      3.028  0.7517E-01  0.2256E-01  0.7333E-02  0.5859E-02  0.0000E+00  0.0000E+00  0.0000E+00  0.0000E+00  0.0000E+00
      3.147  0.7622E-01  0.2328E-01  0.7365E-02  0.5742E-02  0.0000E+00  0.0000E+00  0.0000E+00  0.0000E+00  0.0000E+00
      3.266  0.7106E-01  0.2444E-01  0.8269E-02  0.6633E-02  0.0000E+00  0.0000E+00  0.0000E+00  0.0000E+00  0.0000E+00
      3.385  0.7241E-01  0.2646E-01  0.9894E-02  0.8046E-02  0.0000E+00  0.0000E+00  0.0000E+00  0.0000E+00  0.0000E+00
      3.505  0.6941E-01  0.2849E-01  0.1194E-01  0.9936E-02  0.0000E+00  0.0000E+00  0.0000E+00  0.0000E+00  0.0000E+00
      3.624  0.6639E-01  0.2867E-01  0.1184E-01  0.9750E-02  0.0000E+00  0.0000E+00  0.0000E+00  0.0000E+00  0.0000E+00
      3.743  0.6502E-01  0.2989E-01  0.1278E-01  0.1050E-01  0.0000E+00  0.0000E+00  0.0000E+00  0.0000E+00  0.0000E+00
      3.862  0.6531E-01  0.3194E-01  0.1435E-01  0.1181E-01  0.0000E+00  0.0000E+00  0.0000E+00  0.0000E+00  0.0000E+00
      3.981  0.6584E-01  0.3364E-01  0.1524E-01  0.1234E-01  0.0000E+00  0.0000E+00  0.0000E+00  0.0000E+00  0.0000E+00
      4.100  0.6545E-01  0.3575E-01  0.1640E-01  0.1317E-01  0.0000E+00  0.0000E+00  0.0000E+00  0.0000E+00  0.0000E+00
      4.219  0.6079E-01  0.3702E-01  0.1551E-01  0.1259E-01  0.0000E+00  0.0000E+00  0.0000E+00  0.0000E+00  0.0000E+00
      4.338  0.5917E-01  0.3999E-01  0.1607E-01  0.1308E-01  0.0000E+00  0.0000E+00  0.0000E+00  0.0000E+00  0.0000E+00
      4.457  0.5901E-01  0.4267E-01  0.1703E-01  0.1384E-01  0.0000E+00  0.0000E+00  0.0000E+00  0.0000E+00  0.0000E+00
      4.576  0.5822E-01  0.4566E-01  0.1847E-01  0.1506E-01  0.0000E+00  0.0000E+00  0.0000E+00  0.0000E+00  0.0000E+00
      4.695  0.5522E-01  0.4392E-01  0.1891E-01  0.1520E-01  0.0000E+00  0.0000E+00  0.0000E+00  0.0000E+00  0.0000E+00
      4.814  0.5240E-01  0.4146E-01  0.1888E-01  0.1489E-01  0.0000E+00  0.0000E+00  0.0000E+00  0.0000E+00  0.0000E+00
      4.933  0.5160E-01  0.4229E-01  0.1985E-01  0.1548E-01  0.0000E+00  0.0000E+00  0.0000E+00  0.0000E+00  0.0000E+00
      5.052  0.5055E-01  0.4230E-01  0.2046E-01  0.1590E-01  0.0000E+00  0.0000E+00  0.0000E+00  0.0000E+00  0.0000E+00
      5.172  0.4659E-01  0.4102E-01  0.2048E-01  0.1584E-01  0.0000E+00  0.0000E+00  0.0000E+00  0.0000E+00  0.0000E+00
      5.291  0.4369E-01  0.3785E-01  0.2107E-01  0.1616E-01  0.0000E+00  0.0000E+00  0.0000E+00  0.0000E+00  0.0000E+00
      5.410  0.4101E-01  0.3710E-01  0.2242E-01  0.1727E-01  0.0000E+00  0.0000E+00  0.0000E+00  0.0000E+00  0.0000E+00
      5.529  0.4009E-01  0.3730E-01  0.2229E-01  0.1714E-01  0.0000E+00  0.0000E+00  0.0000E+00  0.0000E+00  0.0000E+00
      5.648  0.4126E-01  0.3470E-01  0.2274E-01  0.1737E-01  0.0000E+00  0.0000E+00  0.0000E+00  0.0000E+00  0.0000E+00
      5.767  0.4539E-01  0.3432E-01  0.2268E-01  0.1721E-01  0.0000E+00  0.0000E+00  0.0000E+00  0.0000E+00  0.0000E+00
      5.886  0.5105E-01  0.3805E-01  0.2342E-01  0.1756E-01  0.0000E+00  0.0000E+00  0.0000E+00  0.0000E+00  0.0000E+00
      6.005  0.5941E-01  0.4243E-01  0.2462E-01  0.1813E-01  0.0000E+00  0.0000E+00  0.0000E+00  0.0000E+00  0.0000E+00
      6.124  0.6964E-01  0.4576E-01  0.2552E-01  0.1847E-01  0.0000E+00  0.0000E+00  0.0000E+00  0.0000E+00  0.0000E+00
      6.243  0.7271E-01  0.4426E-01  0.2580E-01  0.1824E-01  0.0000E+00  0.0000E+00  0.0000E+00  0.0000E+00  0.0000E+00
      6.362  0.7029E-01  0.4228E-01  0.2579E-01  0.1761E-01  0.0000E+00  0.0000E+00  0.0000E+00  0.0000E+00  0.0000E+00
      6.481  0.7246E-01  0.4540E-01  0.2658E-01  0.1727E-01  0.0000E+00  0.0000E+00  0.0000E+00  0.0000E+00  0.0000E+00
      6.600  0.7079E-01  0.4187E-01  0.2726E-01  0.1666E-01  0.0000E+00  0.0000E+00  0.0000E+00  0.0000E+00  0.0000E+00
      6.719  0.6075E-01  0.3878E-01  0.2633E-01  0.1577E-01  0.0000E+00  0.0000E+00  0.0000E+00  0.0000E+00  0.0000E+00
      6.839  0.5958E-01  0.3813E-01  0.2670E-01  0.1536E-01  0.0000E+00  0.0000E+00  0.0000E+00  0.0000E+00  0.0000E+00
      6.958  0.5725E-01  0.3724E-01  0.2656E-01  0.1503E-01  0.0000E+00  0.0000E+00  0.0000E+00  0.0000E+00  0.0000E+00
      7.077  0.5495E-01  0.3536E-01  0.2724E-01  0.1594E-01  0.0000E+00  0.0000E+00  0.0000E+00  0.0000E+00  0.0000E+00
      7.196  0.5145E-01  0.3429E-01  0.2658E-01  0.1754E-01  0.0000E+00  0.0000E+00  0.0000E+00  0.0000E+00  0.0000E+00
      7.315  0.5081E-01  0.3444E-01  0.2728E-01  0.1813E-01  0.0000E+00  0.0000E+00  0.0000E+00  0.0000E+00  0.0000E+00
      7.434  0.6175E-01  0.3818E-01  0.3299E-01  0.2119E-01  0.0000E+00  0.0000E+00  0.0000E+00  0.0000E+00  0.0000E+00
      7.553  0.5716E-01  0.3597E-01  0.3288E-01  0.2099E-01  0.0000E+00  0.0000E+00  0.0000E+00  0.0000E+00  0.0000E+00
      7.672  0.5757E-01  0.3603E-01  0.3394E-01  0.2129E-01  0.0000E+00  0.0000E+00  0.0000E+00  0.0000E+00  0.0000E+00
      7.791  0.5829E-01  0.3730E-01  0.3488E-01  0.2177E-01  0.0000E+00  0.0000E+00  0.0000E+00  0.0000E+00  0.0000E+00
      7.910  0.6014E-01  0.3731E-01  0.3574E-01  0.2251E-01  0.0000E+00  0.0000E+00  0.0000E+00  0.0000E+00  0.0000E+00
      8.029  0.6229E-01  0.3812E-01  0.3643E-01  0.2312E-01  0.0000E+00  0.0000E+00  0.0000E+00  0.0000E+00  0.0000E+00
      8.148  0.5751E-01  0.3828E-01  0.3736E-01  0.2234E-01  0.0000E+00  0.0000E+00  0.0000E+00  0.0000E+00  0.0000E+00
      8.267  0.5916E-01  0.3965E-01  0.3755E-01  0.2245E-01  0.0000E+00  0.0000E+00  0.0000E+00  0.0000E+00  0.0000E+00
      8.386  0.5918E-01  0.3993E-01  0.3999E-01  0.2257E-01  0.0000E+00  0.0000E+00  0.0000E+00  0.0000E+00  0.0000E+00
      8.506  0.5535E-01  0.3810E-01  0.3534E-01  0.2187E-01  0.0000E+00  0.0000E+00  0.0000E+00  0.0000E+00  0.0000E+00
      8.625  0.5528E-01  0.3806E-01  0.3523E-01  0.2203E-01  0.0000E+00  0.0000E+00  0.0000E+00  0.0000E+00  0.0000E+00
      8.744  0.5532E-01  0.3866E-01  0.3614E-01  0.2364E-01  0.0000E+00  0.0000E+00  0.0000E+00  0.0000E+00  0.0000E+00
      8.863  0.5416E-01  0.3900E-01  0.3645E-01  0.2409E-01  0.0000E+00  0.0000E+00  0.0000E+00  0.0000E+00  0.0000E+00
      8.982  0.5398E-01  0.3963E-01  0.3633E-01  0.2518E-01  0.0000E+00  0.0000E+00  0.0000E+00  0.0000E+00  0.0000E+00
      9.101  0.5460E-01  0.4057E-01  0.3686E-01  0.2691E-01  0.0000E+00  0.0000E+00  0.0000E+00  0.0000E+00  0.0000E+00
      9.220  0.5336E-01  0.4029E-01  0.3732E-01  0.2735E-01  0.0000E+00  0.0000E+00  0.0000E+00  0.0000E+00  0.0000E+00
      9.339  0.5327E-01  0.4054E-01  0.3953E-01  0.2852E-01  0.0000E+00  0.0000E+00  0.0000E+00  0.0000E+00  0.0000E+00
      9.458  0.5259E-01  0.4044E-01  0.3895E-01  0.2869E-01  0.0000E+00  0.0000E+00  0.0000E+00  0.0000E+00  0.0000E+00
      9.577  0.5350E-01  0.4110E-01  0.3992E-01  0.2948E-01  0.0000E+00  0.0000E+00  0.0000E+00  0.0000E+00  0.0000E+00
      9.696  0.5330E-01  0.4163E-01  0.4069E-01  0.3007E-01  0.0000E+00  0.0000E+00  0.0000E+00  0.0000E+00  0.0000E+00
      9.815  0.5211E-01  0.4184E-01  0.4083E-01  0.3056E-01  0.0000E+00  0.0000E+00  0.0000E+00  0.0000E+00  0.0000E+00
      9.934  0.5172E-01  0.4232E-01  0.4125E-01  0.3162E-01  0.0000E+00  0.0000E+00  0.0000E+00  0.0000E+00  0.0000E+00
     10.053  0.5104E-01  0.4219E-01  0.4021E-01  0.3282E-01  0.0000E+00  0.0000E+00  0.0000E+00  0.0000E+00  0.0000E+00
     10.173  0.5095E-01  0.4207E-01  0.4045E-01  0.3474E-01  0.0000E+00  0.0000E+00  0.0000E+00  0.0000E+00  0.0000E+00
     10.292  0.4959E-01  0.4155E-01  0.4078E-01  0.3441E-01  0.0000E+00  0.0000E+00  0.0000E+00  0.0000E+00  0.0000E+00
     10.411  0.4865E-01  0.4147E-01  0.4148E-01  0.3438E-01  0.0000E+00  0.0000E+00  0.0000E+00  0.0000E+00  0.0000E+00
     10.530  0.4856E-01  0.4187E-01  0.4304E-01  0.3544E-01  0.0000E+00  0.0000E+00  0.0000E+00  0.0000E+00  0.0000E+00
     10.649  0.4786E-01  0.4219E-01  0.4450E-01  0.3658E-01  0.0000E+00  0.0000E+00  0.0000E+00  0.0000E+00  0.0000E+00
     10.768  0.4719E-01  0.4250E-01  0.4411E-01  0.3717E-01  0.0000E+00  0.0000E+00  0.0000E+00  0.0000E+00  0.0000E+00
     10.887  0.4713E-01  0.4298E-01  0.4572E-01  0.3839E-01  0.0000E+00  0.0000E+00  0.0000E+00  0.0000E+00  0.0000E+00
     11.006  0.4697E-01  0.4343E-01  0.4660E-01  0.3951E-01  0.0000E+00  0.0000E+00  0.0000E+00  0.0000E+00  0.0000E+00
     11.125  0.4697E-01  0.4342E-01  0.4683E-01  0.4062E-01  0.0000E+00  0.0000E+00  0.0000E+00  0.0000E+00  0.0000E+00
     11.244  0.4742E-01  0.4356E-01  0.4825E-01  0.4326E-01  0.0000E+00  0.0000E+00  0.0000E+00  0.0000E+00  0.0000E+00
     11.363  0.4586E-01  0.4306E-01  0.4888E-01  0.4355E-01  0.0000E+00  0.0000E+00  0.0000E+00  0.0000E+00  0.0000E+00
     11.482  0.4432E-01  0.4275E-01  0.4926E-01  0.4380E-01  0.0000E+00  0.0000E+00  0.0000E+00  0.0000E+00  0.0000E+00
     11.601  0.4374E-01  0.4280E-01  0.4992E-01  0.4597E-01  0.0000E+00  0.0000E+00  0.0000E+00  0.0000E+00  0.0000E+00
     11.720  0.4315E-01  0.4311E-01  0.5080E-01  0.4678E-01  0.0000E+00  0.0000E+00  0.0000E+00  0.0000E+00  0.0000E+00
     11.840  0.4291E-01  0.4355E-01  0.5232E-01  0.4826E-01  0.0000E+00  0.0000E+00  0.0000E+00  0.0000E+00  0.0000E+00
     11.959  0.4218E-01  0.4349E-01  0.5333E-01  0.5001E-01  0.0000E+00  0.0000E+00  0.0000E+00  0.0000E+00  0.0000E+00
     12.078  0.4163E-01  0.4373E-01  0.5542E-01  0.5237E-01  0.0000E+00  0.0000E+00  0.0000E+00  0.0000E+00  0.0000E+00
     12.197  0.4112E-01  0.4374E-01  0.5566E-01  0.5418E-01  0.0000E+00  0.0000E+00  0.0000E+00  0.0000E+00  0.0000E+00