    1    1    1    1
  0.1482975E+02  0.2757716E-09  0.2757716E-09  0.2757716E-09  0.5000000E-15
  1.000000000000000E-004
  CAR 
 fcc Si                                  
      4    400      6
 
  0.5000000E+00  0.5000000E+00  0.5000000E+00  0.2500000E-02
    1        2.313048   1.000000
    2        3.056945   1.000000
    3       18.189560   0.000000
    4       18.189560   0.000000
    5       20.733893   0.000000
    6       20.733894   0.000000
 
  0.4949495E+00  0.4949495E+00  0.4949495E+00  0.2500000E-02
    1        2.288193   1.000000
    2        3.083111   1.000000
    3       18.189457   0.000000
    4       18.189457   0.000000
    5       20.735233   0.000000
    6       20.735233   0.000000
 
  0.4898990E+00  0.4898990E+00  0.4898990E+00  0.2500000E-02
    1        2.221943   1.000000
    2        3.153298   1.000000
    3       18.189148   0.000000
    4       18.189148   0.000000
    5       20.739247   0.000000
    6       20.739247   0.000000
 
  0.4848485E+00  0.4848485E+00  0.4848485E+00  0.2500000E-02
    1        2.129669   1.000000
    2        3.252142   1.000000
    3       18.188643   0.000000
    4       18.188643   0.000000
    5       20.745929   0.000000
    6       20.745930   0.000000
 
  0.4797980E+00  0.4797980E+00  0.4797980E+00  0.2500000E-02
    1        2.022932   1.000000
    2        3.368081   1.000000
    3       18.187954   0.000000
    4       18.187954   0.000000
    5       20.755263   0.000000
    6       20.755264   0.000000
 
  0.4747475E+00  0.4747475E+00  0.4747475E+00  0.2500000E-02
    1        1.908358   1.000000
    2        3.494489   1.000000
    3       18.187098   0.000000
    4       18.187098   0.000000
    5       20.767232   0.000000
    6       20.767233   0.000000
 
  0.4696970E+00  0.4696970E+00  0.4696970E+00  0.2500000E-02
    1        1.789547   1.000000
    2        3.627764   1.000000
    3       18.186097   0.000000
    4       18.186097   0.000000
    5       20.781812   0.000000
    6       20.781846   0.000000
 
  0.4646465E+00  0.4646465E+00  0.4646465E+00  0.2500000E-02
    1        1.668509   1.000000
    2        3.765897   1.000000
    3       18.184977   0.000000
    4       18.184982   0.000000
    5       20.798973   0.000000
    6       20.801360   0.000000
 
  0.4595960E+00  0.4595960E+00  0.4595960E+00  0.2500000E-02
    1        1.545877   1.000000
    2        3.907701   1.000000
    3       18.183654   0.000000
    4       18.183654   0.000000
    5       20.818515   0.000000
    6       20.818515   0.000000
 
  0.4545455E+00  0.4545455E+00  0.4545455E+00  0.2500000E-02
    1        1.423468   1.000000
    2        4.052469   1.000000
    3       18.182369   0.000000
    4       18.182369   0.000000
    5       20.840739   0.000000
    6       20.840741   0.000000
 
  0.4494949E+00  0.4494949E+00  0.4494949E+00  0.2500000E-02
    1        1.301194   1.000000
    2        4.199729   1.000000
    3       18.181063   0.000000
    4       18.181063   0.000000
    5       20.865435   0.000000
    6       20.865458   0.000000
 
  0.4444444E+00  0.4444444E+00  0.4444444E+00  0.2500000E-02
    1        1.179366   1.000000
    2        4.349168   1.000000
    3       18.179774   0.000000
    4       18.179774   0.000000
    5       20.892562   0.000000
    6       20.892565   0.000000
 
  0.4393939E+00  0.4393939E+00  0.4393939E+00  0.2500000E-02
    1        1.058201   1.000000
    2        4.500571   1.000000
    3       18.178542   0.000000
    4       18.178543   0.000000
    5       20.922074   0.000000
    6       20.922075   0.000000
 
  0.4343434E+00  0.4343434E+00  0.4343434E+00  0.2500000E-02
    1        0.937851   1.000000
    2        4.653780   1.000000
    3       18.177410   0.000000
    4       18.177410   0.000000
    5       20.953923   0.000000
    6       20.953923   0.000000
 
  0.4292929E+00  0.4292929E+00  0.4292929E+00  0.2500000E-02
    1        0.818430   1.000000
    2        4.808680   1.000000
    3       18.176418   0.000000
    4       18.176418   0.000000
    5       20.988061   0.000000
    6       20.988061   0.000000
 
  0.4242424E+00  0.4242424E+00  0.4242424E+00  0.2500000E-02
    1        0.700017   1.000000
    2        4.965180   1.000000
    3       18.175612   0.000000
    4       18.175612   0.000000
    5       21.024438   0.000000
    6       21.024438   0.000000
 
  0.4191919E+00  0.4191919E+00  0.4191919E+00  0.2500000E-02
    1        0.582678   1.000000
    2        5.123219   1.000000
    3       18.175033   0.000000
    4       18.175033   0.000000
    5       21.063002   0.000000
    6       21.063002   0.000000
 
  0.4141414E+00  0.4141414E+00  0.4141414E+00  0.2500000E-02
    1        0.466467   1.000000
    2        5.282746   1.000000
    3       18.174727   0.000000
    4       18.174727   0.000000
    5       21.103701   0.000000
    6       21.103701   0.000000
 
  0.4090909E+00  0.4090909E+00  0.4090909E+00  0.2500000E-02
    1        0.351426   1.000000
    2        5.443717   1.000000
    3       18.174734   0.000000
    4       18.174735   0.000000
    5       21.146483   0.000000
    6       21.146484   0.000000
 
  0.4040404E+00  0.4040404E+00  0.4040404E+00  0.2500000E-02
    1        0.237587   1.000000
    2        5.606097   1.000000
    3       18.175100   0.000000
    4       18.175100   0.000000
    5       21.191297   0.000000
    6       21.191304   0.000000
 
  0.3989899E+00  0.3989899E+00  0.3989899E+00  0.2500000E-02
    1        0.124976   1.000000
    2        5.769859   1.000000
    3       18.175864   0.000000
    4       18.175864   0.000000
    5       21.238089   0.000000
    6       21.238097   0.000000
 
  0.3939394E+00  0.3939394E+00  0.3939394E+00  0.2500000E-02
    1        0.013617   1.000000
    2        5.934976   1.000000
    3       18.177066   0.000000
    4       18.177067   0.000000
    5       21.286807   0.000000
    6       21.286808   0.000000
 
  0.3888889E+00  0.3888889E+00  0.3888889E+00  0.2500000E-02
    1       -0.096473   1.000000
    2        6.101428   1.000000
    3       18.178748   0.000000
    4       18.178748   0.000000
    5       21.337399   0.000000
    6       21.337405   0.000000
 
  0.3838384E+00  0.3838384E+00  0.3838384E+00  0.2500000E-02
    1       -0.205278   1.000000
    2        6.269196   1.000000
    3       18.180946   0.000000
    4       18.180946   0.000000
    5       21.389812   0.000000
    6       21.389815   0.000000
 
  0.3787879E+00  0.3787879E+00  0.3787879E+00  0.2500000E-02
    1       -0.312785   1.000000
    2        6.438262   1.000000
    3       18.183697   0.000000
    4       18.183697   0.000000
    5       21.443994   0.000000
    6       21.444002   0.000000
 
  0.3737374E+00  0.3737374E+00  0.3737374E+00  0.2500000E-02
    1       -0.418981   1.000000
    2        6.608613   1.000000
    3       18.187036   0.000000
    4       18.187036   0.000000
    5       21.499892   0.000000
    6       21.499902   0.000000
 
  0.3686869E+00  0.3686869E+00  0.3686869E+00  0.2500000E-02
    1       -0.523858   1.000000
    2        6.780234   1.000000
    3       18.190997   0.000000
    4       18.190997   0.000000
    5       21.557455   0.000000
    6       21.557462   0.000000
 
  0.3636364E+00  0.3636364E+00  0.3636364E+00  0.2500000E-02
    1       -0.627405   1.000000
    2        6.953111   1.000000
    3       18.195612   0.000000
    4       18.195612   0.000000
    5       21.616629   0.000000
    6       21.616638   0.000000
 
  0.3585859E+00  0.3585859E+00  0.3585859E+00  0.2500000E-02
    1       -0.729614   1.000000
    2        7.127231   1.000000
    3       18.200912   0.000000
    4       18.200912   0.000000
    5       21.677361   0.000000
    6       21.677366   0.000000
 
  0.3535354E+00  0.3535354E+00  0.3535354E+00  0.2500000E-02
    1       -0.830484   1.000000
    2        7.302578   1.000000
    3       18.206925   0.000000
    4       18.206925   0.000000
    5       21.739598   0.000000
    6       21.739604   0.000000
 
  0.3484848E+00  0.3484848E+00  0.3484848E+00  0.2500000E-02
    1       -0.930850   1.000000
    2        7.478415   1.000000
    3       18.213502   0.000000
    4       18.213502   0.000000
    5       21.803182   0.000000
    6       21.803184   0.000000
 
  0.3434343E+00  0.3434343E+00  0.3434343E+00  0.2500000E-02
    1       -1.028999   1.000000
    2        7.656152   1.000000
    3       18.221014   0.000000
    4       18.221014   0.000000
    5       21.868259   0.000000
    6       21.868260   0.000000
 
  0.3383838E+00  0.3383838E+00  0.3383838E+00  0.2500000E-02
    1       -1.125786   1.000000
    2        7.835089   1.000000
    3       18.229319   0.000000
    4       18.229319   0.000000
    5       21.934672   0.000000
    6       21.934677   0.000000
 
  0.3333333E+00  0.3333333E+00  0.3333333E+00  0.2500000E-02
    1       -1.221205   1.000000
    2        8.015215   1.000000
    3       18.238440   0.000000
    4       18.238440   0.000000
    5       22.002361   0.000000
    6       22.002364   0.000000
 
  0.3282828E+00  0.3282828E+00  0.3282828E+00  0.2500000E-02
    1       -1.316248   1.000000
    2        8.195881   1.000000
    3       18.247715   0.000000
    4       18.247715   0.000000
    5       22.067349   0.000000
    6       22.067358   0.000000
 
  0.3232323E+00  0.3232323E+00  0.3232323E+00  0.2500000E-02
    1       -1.408902   1.000000
    2        8.378321   1.000000
    3       18.258498   0.000000
    4       18.258498   0.000000
    5       22.137347   0.000000
    6       22.137407   0.000000
 
  0.3181818E+00  0.3181818E+00  0.3181818E+00  0.2500000E-02
    1       -1.500176   1.000000
    2        8.561918   1.000000
    3       18.270159   0.000000
    4       18.270159   0.000000
    5       22.208426   0.000000
    6       22.208600   0.000000
 
  0.3131313E+00  0.3131313E+00  0.3131313E+00  0.2500000E-02
    1       -1.590066   1.000000
    2        8.746661   1.000000
    3       18.282717   0.000000
    4       18.282717   0.000000
    5       22.280514   0.000000
    6       22.283015   0.000000
 
  0.3080808E+00  0.3080808E+00  0.3080808E+00  0.2500000E-02
    1       -1.678569   1.000000
    2        8.932539   1.000000
    3       18.296189   0.000000
    4       18.296189   0.000000
    5       22.353532   0.000000
    6       22.356203   0.000000
 
  0.3030303E+00  0.3030303E+00  0.3030303E+00  0.2500000E-02
    1       -1.765682   1.000000
    2        9.119541   1.000000
    3       18.310592   0.000000
    4       18.310592   0.000000
    5       22.427396   0.000000
    6       22.428169   0.000000
 
  0.2979798E+00  0.2979798E+00  0.2979798E+00  0.2500000E-02
    1       -1.851421   1.000000
    2        9.306363   1.000000
    3       18.322330   0.000000
    4       18.322330   0.000000
    5       22.505860   0.000000
    6       22.507241   0.000000
 
  0.2929293E+00  0.2929293E+00  0.2929293E+00  0.2500000E-02
    1       -1.935745   1.000000
    2        9.495522   1.000000
    3       18.338582   0.000000
    4       18.338582   0.000000
    5       22.580808   0.000000
    6       22.583510   0.000000
 
  0.2878788E+00  0.2878788E+00  0.2878788E+00  0.2500000E-02
    1       -2.018671   1.000000
    2        9.685767   1.000000
    3       18.355809   0.000000
    4       18.355809   0.000000
    5       22.656272   0.000000
    6       22.662354   0.000000
 
  0.2828283E+00  0.2828283E+00  0.2828283E+00  0.2500000E-02
    1       -2.100199   1.000000
    2        9.877080   1.000000
    3       18.374025   0.000000
    4       18.374025   0.000000
    5       22.732131   0.000000
    6       22.745277   0.000000
 
  0.2777778E+00  0.2777778E+00  0.2777778E+00  0.2500000E-02
    1       -2.180329   1.000000
    2       10.069454   1.000000
    3       18.393239   0.000000
    4       18.393239   0.000000
    5       22.756462   0.000000
    6       22.808245   0.000000
 
  0.2727273E+00  0.2727273E+00  0.2727273E+00  0.2500000E-02
    1       -2.259052   1.000000
    2       10.262878   1.000000
    3       18.413464   0.000000
    4       18.413464   0.000000
    5       22.760911   0.000000
    6       22.884461   0.000000
 
  0.2676768E+00  0.2676768E+00  0.2676768E+00  0.2500000E-02
    1       -2.336367   1.000000
    2       10.457336   1.000000
    3       18.434710   0.000000
    4       18.434710   0.000000
    5       22.766027   0.000000
    6       22.960607   0.000000
 
  0.2626263E+00  0.2626263E+00  0.2626263E+00  0.2500000E-02
    1       -2.412270   1.000000
    2       10.652815   1.000000
    3       18.456985   0.000000
    4       18.456985   0.000000
    5       22.771348   0.000000
    6       23.036487   0.000000
 
  0.2575758E+00  0.2575758E+00  0.2575758E+00  0.2500000E-02
    1       -2.486759   1.000000
    2       10.849300   1.000000
    3       18.480298   0.000000
    4       18.480298   0.000000
    5       22.776926   0.000000
    6       23.111881   0.000000
 
  0.2525253E+00  0.2525253E+00  0.2525253E+00  0.2500000E-02
    1       -2.559832   1.000000
    2       11.046774   1.000000
    3       18.504657   0.000000
    4       18.504657   0.000000
    5       22.782878   0.000000
    6       23.186538   0.000000
 
  0.2474747E+00  0.2474747E+00  0.2474747E+00  0.2500000E-02
    1       -2.631488   1.000000
    2       11.245222   1.000000
    3       18.530070   0.000000
    4       18.530070   0.000000
    5       22.789190   0.000000
    6       23.260174   0.000000
 
  0.2424242E+00  0.2424242E+00  0.2424242E+00  0.2500000E-02
    1       -2.701723   1.000000
    2       11.444626   1.000000
    3       18.556542   0.000000
    4       18.556542   0.000000
    5       22.796059   0.000000
    6       23.332461   0.000000
 
  0.2373737E+00  0.2373737E+00  0.2373737E+00  0.2500000E-02
    1       -2.770537   1.000000
    2       11.644967   1.000000
    3       18.584080   0.000000
    4       18.584080   0.000000
    5       22.803329   0.000000
    6       23.403030   0.000000
 
  0.2323232E+00  0.2323232E+00  0.2323232E+00  0.2500000E-02
    1       -2.837928   1.000000
    2       11.846227   1.000000
    3       18.612688   0.000000
    4       18.612688   0.000000
    5       22.810961   0.000000
    6       23.471457   0.000000
 
  0.2272727E+00  0.2272727E+00  0.2272727E+00  0.2500000E-02
    1       -2.903893   1.000000
    2       12.048384   1.000000
    3       18.642371   0.000000
    4       18.642371   0.000000
    5       22.818918   0.000000
    6       23.537263   0.000000
 
  0.2222222E+00  0.2222222E+00  0.2222222E+00  0.2500000E-02
    1       -2.968432   1.000000
    2       12.251418   1.000000
    3       18.673133   0.000000
    4       18.673133   0.000000
    5       22.827160   0.000000
    6       23.599905   0.000000
 
  0.2171717E+00  0.2171717E+00  0.2171717E+00  0.2500000E-02
    1       -3.031542   1.000000
    2       12.455304   1.000000
    3       18.704977   0.000000
    4       18.704977   0.000000
    5       22.835637   0.000000
    6       23.658778   0.000000
 
  0.2121212E+00  0.2121212E+00  0.2121212E+00  0.2500000E-02
    1       -3.093224   1.000000
    2       12.660011   1.000000
    3       18.737905   0.000000
    4       18.737905   0.000000
    5       22.844338   0.000000
    6       23.713211   0.000000
 
  0.2070707E+00  0.2070707E+00  0.2070707E+00  0.2500000E-02
    1       -3.153482   1.000000
    2       12.865522   0.027816
    3       18.771920   0.000000
    4       18.771920   0.000000
    5       22.853007   0.000000
    6       23.762478   0.000000
 
  0.2020202E+00  0.2020202E+00  0.2020202E+00  0.2500000E-02
    1       -3.212283   1.000000
    2       13.073531   0.000000
    3       18.807032   0.000000
    4       18.807032   0.000000
    5       22.863975   0.000000
    6       23.811531   0.000000
 
  0.1969697E+00  0.1969697E+00  0.1969697E+00  0.2500000E-02
    1       -3.269673   1.000000
    2       13.280592   0.000000
    3       18.843224   0.000000
    4       18.843224   0.000000
    5       22.872694   0.000000
    6       23.847509   0.000000
 
  0.1919192E+00  0.1919192E+00  0.1919192E+00  0.2500000E-02
    1       -3.325627   1.000000
    2       13.488368   0.000000
    3       18.880502   0.000000
    4       18.880502   0.000000
    5       22.881335   0.000000
    6       23.875988   0.000000
 
  0.1868687E+00  0.1868687E+00  0.1868687E+00  0.2500000E-02
    1       -3.380143   1.000000
    2       13.696828   0.000000
    3       18.918868   0.000000
    4       18.918868   0.000000
    5       22.889818   0.000000
    6       23.896279   0.000000
 
  0.1818182E+00  0.1818182E+00  0.1818182E+00  0.2500000E-02
    1       -3.433220   1.000000
    2       13.905937   0.000000
    3       18.958317   0.000000
    4       18.958317   0.000000
    5       22.898060   0.000000
    6       23.907810   0.000000
 
  0.1767677E+00  0.1767677E+00  0.1767677E+00  0.2500000E-02
    1       -3.484857   1.000000
    2       14.115655   0.000000
    3       18.998848   0.000000
    4       18.998848   0.000000
    5       22.905899   0.000000
    6       23.910180   0.000000
 
  0.1717172E+00  0.1717172E+00  0.1717172E+00  0.2500000E-02
    1       -3.535052   1.000000
    2       14.325943   0.000000
    3       19.040456   0.000000
    4       19.040456   0.000000
    5       22.913463   0.000000
    6       23.903198   0.000000
 
  0.1666667E+00  0.1666667E+00  0.1666667E+00  0.2500000E-02
    1       -3.583805   1.000000
    2       14.536755   0.000000
    3       19.083137   0.000000
    4       19.083137   0.000000
    5       22.920608   0.000000
    6       23.886902   0.000000
 
  0.1616162E+00  0.1616162E+00  0.1616162E+00  0.2500000E-02
    1       -3.631114   1.000000
    2       14.748046   0.000000
    3       19.126882   0.000000
    4       19.126882   0.000000
    5       22.927224   0.000000
    6       23.861557   0.000000
 
  0.1565657E+00  0.1565657E+00  0.1565657E+00  0.2500000E-02
    1       -3.676978   1.000000
    2       14.959763   0.000000
    3       19.171686   0.000000
    4       19.171686   0.000000
    5       22.933155   0.000000
    6       23.827635   0.000000
 
  0.1515152E+00  0.1515152E+00  0.1515152E+00  0.2500000E-02
    1       -3.721381   1.000000
    2       15.177626   0.000000
    3       19.217539   0.000000
    4       19.217539   0.000000
    5       22.945213   0.000000
    6       23.785766   0.000000
 
  0.1464646E+00  0.1464646E+00  0.1464646E+00  0.2500000E-02
    1       -3.764353   1.000000
    2       15.390065   0.000000
    3       19.264432   0.000000
    4       19.264432   0.000000
    5       22.949282   0.000000
    6       23.736686   0.000000
 
  0.1414141E+00  0.1414141E+00  0.1414141E+00  0.2500000E-02
    1       -3.805878   1.000000
    2       15.602740   0.000000
    3       19.312352   0.000000
    4       19.312352   0.000000
    5       22.948657   0.000000
    6       23.681186   0.000000
 
  0.1363636E+00  0.1363636E+00  0.1363636E+00  0.2500000E-02
    1       -3.845963   1.000000
    2       15.815589   0.000000
    3       19.361285   0.000000
    4       19.361285   0.000000
    5       22.949474   0.000000
    6       23.620067   0.000000
 
  0.1313131E+00  0.1313131E+00  0.1313131E+00  0.2500000E-02
    1       -3.884598   1.000000
    2       16.028533   0.000000
    3       19.411212   0.000000
    4       19.411212   0.000000
    5       22.948791   0.000000
    6       23.554110   0.000000
 
  0.1262626E+00  0.1262626E+00  0.1262626E+00  0.2500000E-02
    1       -3.921782   1.000000
    2       16.241489   0.000000
    3       19.462115   0.000000
    4       19.462115   0.000000
    5       22.946436   0.000000
    6       23.484050   0.000000
 
  0.1212121E+00  0.1212121E+00  0.1212121E+00  0.2500000E-02
    1       -3.957514   1.000000
    2       16.454364   0.000000
    3       19.513970   0.000000
    4       19.513970   0.000000
    5       22.942103   0.000000
    6       23.410564   0.000000
 
  0.1161616E+00  0.1161616E+00  0.1161616E+00  0.2500000E-02
    1       -3.991794   1.000000
    2       16.667056   0.000000
    3       19.566751   0.000000
    4       19.566751   0.000000
    5       22.935375   0.000000
    6       23.334267   0.000000
 
  0.1111111E+00  0.1111111E+00  0.1111111E+00  0.2500000E-02
    1       -4.024621   1.000000
    2       16.879454   0.000000
    3       19.620425   0.000000
    4       19.620425   0.000000
    5       22.926476   0.000000
    6       23.255713   0.000000
 
  0.1060606E+00  0.1060606E+00  0.1060606E+00  0.2500000E-02
    1       -4.055993   1.000000
    2       17.091434   0.000000
    3       19.674955   0.000000
    4       19.674955   0.000000
    5       22.915021   0.000000
    6       23.175396   0.000000
 
  0.1010101E+00  0.1010101E+00  0.1010101E+00  0.2500000E-02
    1       -4.085910   1.000000
    2       17.302857   0.000000
    3       19.730298   0.000000
    4       19.730298   0.000000
    5       22.900888   0.000000
    6       23.093762   0.000000
 
  0.9595960E-01  0.9595960E-01  0.9595960E-01  0.2500000E-02
    1       -4.114371   1.000000
    2       17.513572   0.000000
    3       19.786402   0.000000
    4       19.786402   0.000000
    5       22.893779   0.000000
    6       23.011208   0.000000
 
  0.9090909E-01  0.9090909E-01  0.9090909E-01  0.2500000E-02
    1       -4.141377   1.000000
    2       17.723406   0.000000
    3       19.843204   0.000000
    4       19.843204   0.000000
    5       22.871128   0.000000
    6       22.928098   0.000000
 
  0.8585859E-01  0.8585859E-01  0.8585859E-01  0.2500000E-02
    1       -4.166925   1.000000
    2       17.932168   0.000000
    3       19.900631   0.000000
    4       19.900632   0.000000
    5       22.836293   0.000000
    6       22.844766   0.000000
 
  0.8080808E-01  0.8080808E-01  0.8080808E-01  0.2500000E-02
    1       -4.191016   1.000000
    2       18.139641   0.000000
    3       19.958595   0.000000
    4       19.958595   0.000000
    5       22.761525   0.000000
    6       22.779201   0.000000
 
  0.7575758E-01  0.7575758E-01  0.7575758E-01  0.2500000E-02
    1       -4.213650   1.000000
    2       18.345578   0.000000
    3       20.016987   0.000000
    4       20.016987   0.000000
    5       22.678677   0.000000
    6       22.694216   0.000000
 
  0.7070707E-01  0.7070707E-01  0.7070707E-01  0.2500000E-02
    1       -4.234825   1.000000
    2       18.549688   0.000000
    3       20.075677   0.000000
    4       20.075677   0.000000
    5       22.596522   0.000000
    6       22.597979   0.000000
 
  0.6565657E-01  0.6565657E-01  0.6565657E-01  0.2500000E-02
    1       -4.254551   1.000000
    2       18.751654   0.000000
    3       20.134503   0.000000
    4       20.134503   0.000000
    5       22.515364   0.000000
    6       22.516225   0.000000
 
  0.6060606E-01  0.6060606E-01  0.6060606E-01  0.2500000E-02
    1       -4.272818   1.000000
    2       18.951093   0.000000
    3       20.193267   0.000000
    4       20.193267   0.000000
    5       22.435530   0.000000
    6       22.436188   0.000000
 
  0.5555556E-01  0.5555556E-01  0.5555556E-01  0.2500000E-02
    1       -4.289625   1.000000
    2       19.147553   0.000000
    3       20.251718   0.000000
    4       20.251718   0.000000
    5       22.357377   0.000000
    6       22.357922   0.000000
 
  0.5050505E-01  0.5050505E-01  0.5050505E-01  0.2500000E-02
    1       -4.304971   1.000000
    2       19.340488   0.000000
    3       20.309545   0.000000
    4       20.309545   0.000000
    5       22.281309   0.000000
    6       22.281776   0.000000
 
  0.4545455E-01  0.4545455E-01  0.4545455E-01  0.2500000E-02
    1       -4.318857   1.000000
    2       19.529222   0.000000
    3       20.366350   0.000000
    4       20.366351   0.000000
    5       22.207803   0.000000
    6       22.208218   0.000000
 
  0.4040404E-01  0.4040404E-01  0.4040404E-01  0.2500000E-02
    1       -4.331282   1.000000
    2       19.712900   0.000000
    3       20.421633   0.000000
    4       20.421633   0.000000
    5       22.137430   0.000000
    6       22.137822   0.000000
 
  0.3535354E-01  0.3535354E-01  0.3535354E-01  0.2500000E-02
    1       -4.342246   1.000000
    2       19.890401   0.000000
    3       20.474754   0.000000
    4       20.474754   0.000000
    5       22.070886   0.000000
    6       22.070918   0.000000
 
  0.3030303E-01  0.3030303E-01  0.3030303E-01  0.2500000E-02
    1       -4.351923   1.000000
    2       20.059227   0.000000
    3       20.523799   0.000000
    4       20.523799   0.000000
    5       21.976307   0.000000
    6       21.976332   0.000000
 
  0.2525253E-01  0.2525253E-01  0.2525253E-01  0.2500000E-02
    1       -4.359962   1.000000
    2       20.219177   0.000000
    3       20.570378   0.000000
    4       20.570378   0.000000
    5       21.919635   0.000000
    6       21.919668   0.000000
 
  0.2020202E-01  0.2020202E-01  0.2020202E-01  0.2500000E-02
    1       -4.366538   1.000000
    2       20.366134   0.000000
    3       20.611717   0.000000
    4       20.611717   0.000000
    5       21.869997   0.000000
    6       21.870066   0.000000
 
  0.1515152E-01  0.1515152E-01  0.1515152E-01  0.2500000E-02
    1       -4.371739   1.000000
    2       20.494372   0.000000
    3       20.646299   0.000000
    4       20.646299   0.000000
    5       21.827882   0.000000
    6       21.828025   0.000000
 
  0.1010101E-01  0.1010101E-01  0.1010101E-01  0.2500000E-02
    1       -4.375389   1.000000
    2       20.599459   0.000000
    3       20.672638   0.000000
    4       20.672639   0.000000
    5       21.796892   0.000000
    6       21.797208   0.000000
 
  0.5050505E-02  0.5050505E-02  0.5050505E-02  0.2500000E-02
    1       -4.377577   1.000000
    2       20.669668   0.000000
    3       20.689179   0.000000
    4       20.689179   0.000000
    5       21.777555   0.000000
    6       21.778637   0.000000
 
  0.0000000E+00  0.0000000E+00  0.0000000E+00  0.2500000E-02
    1       -4.378304   1.000000
    2       20.694649   0.000000
    3       20.694828   0.000000
    4       20.694828   0.000000
    5       21.770912   0.000000
    6       21.770973   0.000000
 
  0.0000000E+00  0.0000000E+00  0.0000000E+00  0.2500000E-02
    1       -4.378304   1.000000
    2       20.694649   0.000000
    3       20.694828   0.000000
    4       20.694828   0.000000
    5       21.770912   0.000000
    6       21.770973   0.000000
 
  0.0000000E+00  0.5050505E-02  0.5050505E-02  0.2500000E-02
    1       -4.377335   1.000000
    2       20.671891   0.000000
    3       20.672009   0.000000
    4       20.692355   0.000000
    5       21.764465   0.000000
    6       21.794978   0.000000
 
  0.0000000E+00  0.1010101E-01  0.1010101E-01  0.2500000E-02
    1       -4.374416   1.000000
    2       20.608683   0.000000
    3       20.608798   0.000000
    4       20.685117   0.000000
    5       21.745127   0.000000
    6       21.861921   0.000000
 
  0.0000000E+00  0.1515152E-01  0.1515152E-01  0.2500000E-02
    1       -4.369548   1.000000
    2       20.516283   0.000000
    3       20.516395   0.000000
    4       20.673081   0.000000
    5       21.713327   0.000000
    6       21.960545   0.000000
 
  0.0000000E+00  0.2020202E-01  0.2020202E-01  0.2500000E-02
    1       -4.362611   1.000000
    2       20.406364   0.000000
    3       20.406468   0.000000
    4       20.656617   0.000000
    5       21.674480   0.000000
    6       22.099696   0.000000
 
  0.0000000E+00  0.2525253E-01  0.2525253E-01  0.2500000E-02
    1       -4.353841   1.000000
    2       20.284010   0.000000
    3       20.284110   0.000000
    4       20.635113   0.000000
    5       21.619339   0.000000
    6       22.233083   0.000000
 
  0.0000000E+00  0.3030303E-01  0.3030303E-01  0.2500000E-02
    1       -4.343122   1.000000
    2       20.154487   0.000000
    3       20.154583   0.000000
    4       20.608975   0.000000
    5       21.553959   0.000000
    6       22.376118   0.000000
 
  0.0000000E+00  0.3535354E-01  0.3535354E-01  0.2500000E-02
    1       -4.330226   1.000000
    2       20.023428   0.000000
    3       20.023550   0.000000
    4       20.578916   0.000000
    5       21.510010   0.000000
    6       22.550448   0.000000
 
  0.0000000E+00  0.4040404E-01  0.4040404E-01  0.2500000E-02
    1       -4.315608   1.000000
    2       19.887189   0.000000
    3       19.887309   0.000000
    4       20.543738   0.000000
    5       21.425675   0.000000
    6       22.705204   0.000000
 
  0.0000000E+00  0.4545455E-01  0.4545455E-01  0.2500000E-02
    1       -4.299042   1.000000
    2       19.749418   0.000000
    3       19.749537   0.000000
    4       20.504197   0.000000
    5       21.334036   0.000000
    6       22.863939   0.000000
 
  0.0000000E+00  0.5050505E-01  0.5050505E-01  0.2500000E-02
    1       -4.280529   1.000000
    2       19.610899   0.000000
    3       19.611016   0.000000
    4       20.460397   0.000000
    5       21.236020   0.000000
    6       23.025854   0.000000
 
  0.0000000E+00  0.5555556E-01  0.5555556E-01  0.2500000E-02
    1       -4.260068   1.000000
    2       19.472172   0.000000
    3       19.472287   0.000000
    4       20.412452   0.000000
    5       21.132489   0.000000
    6       23.190391   0.000000
 
  0.0000000E+00  0.6060606E-01  0.6060606E-01  0.2500000E-02
    1       -4.237661   1.000000
    2       19.333624   0.000000
    3       19.333738   0.000000
    4       20.360477   0.000000
    5       21.024237   0.000000
    6       23.357141   0.000000
 
  0.0000000E+00  0.6565657E-01  0.6565657E-01  0.2500000E-02
    1       -4.213318   1.000000
    2       19.195537   0.000000
    3       19.195650   0.000000
    4       20.304589   0.000000
    5       20.911983   0.000000
    6       23.525801   0.000000
 