 vasp.5.4.1 24Jun15 (build Mar 11 2018 14:54:50) complex                        
  
 executed on           IFC91_ompi date 2020.04.13  08:35:17
 running on    1 total cores
 distrk:  each k-point on    1 cores,    1 groups
 distr:  one band on NCORES_PER_BAND=   1 cores,    1 groups


--------------------------------------------------------------------------------------------------------


 INCAR:
 POTCAR:    PAW_PBE Si 05Jan2001                  
 POTCAR:    PAW_PBE Si 05Jan2001                  
   VRHFIN =Si: s2p2                                                             
   LEXCH  = PE                                                                  
   EATOM  =   103.0669 eV,    7.5752 Ry                                         
                                                                                
   TITEL  = PAW_PBE Si 05Jan2001                                                
   LULTRA =        F    use ultrasoft PP ?                                      
   IUNSCR =        1    unscreen: 0-lin 1-nonlin 2-no                           
   RPACOR =    1.500    partial core radius                                     
   POMASS =   28.085; ZVAL   =    4.000    mass and valenz                      
   RCORE  =    1.900    outmost cutoff radius                                   
   RWIGS  =    2.480; RWIGS  =    1.312    wigner-seitz radius (au A)           
   ENMAX  =  245.345; ENMIN  =  184.009 eV                                      
   ICORE  =        2    local potential                                         
   LCOR   =        T    correct aug charges                                     
   LPAW   =        T    paw PP                                                  
   EAUG   =  322.069                                                            
   DEXC   =    0.000                                                            
   RMAX   =    1.950    core radius for proj-oper                               
   RAUG   =    1.300    factor for augmentation sphere                          
   RDEP   =    1.993    radius for radial grids                                 
   RDEPT  =    1.837    core radius for aug-charge                              
                                                                                
   Atomic configuration                                                         
    6 entries                                                                   
     n  l   j            E        occ.                                          
     1  0  0.50     -1785.8828   2.0000                                         
     2  0  0.50      -139.4969   2.0000                                         
     2  1  1.50       -95.5546   6.0000                                         
     3  0  0.50       -10.8127   2.0000                                         
     3  1  0.50        -4.0811   2.0000                                         
     3  2  1.50        -4.0817   0.0000                                         
   Description                                                                  
     l       E           TYP  RCUT    TYP  RCUT                                 
     0    -10.8127223     23  1.900                                             
     0     -7.6451159     23  1.900                                             
     1     -4.0811372     23  1.900                                             
     1      2.4879257     23  1.900                                             
     2     -4.0817478      7  1.900                                             
  local pseudopotential read in
  partial core-charges read in
  partial kinetic energy density read in
  atomic valenz-charges read in
  non local Contribution for L=           0  read in
    real space projection operators read in
  non local Contribution for L=           0  read in
    real space projection operators read in
  non local Contribution for L=           1  read in
    real space projection operators read in
  non local Contribution for L=           1  read in
    real space projection operators read in
    PAW grid and wavefunctions read in
 
   number of l-projection  operators is LMAX  =           4
   number of lm-projection operators is LMMAX =           8
 
  PAW_PBE Si 05Jan2001                  :
 energy of atom  1       EATOM= -103.0669
 kinetic energy error for atom=    0.0061 (will be added to EATOM!!)
 
 
 POSCAR: fcc:                                    
  positions in cartesian coordinates
  No initial velocities read in
 exchange correlation table for  LEXCH =        8
   RHO(1)=    0.500       N(1)  =     2000
   RHO(2)=  100.500       N(2)  =     4000
 


--------------------------------------------------------------------------------------------------------


 ion  position               nearest neighbor table
   1  0.000  0.000  0.000-
 
  LATTYP: Found a face centered cubic cell.
 ALAT       =     3.9000000000
  
  Lattice vectors:
  
 A1 = (   1.9500000000,   1.9500000000,   0.0000000000)
 A2 = (   0.0000000000,   1.9500000000,   1.9500000000)
 A3 = (   1.9500000000,   0.0000000000,   1.9500000000)


Analysis of symmetry for initial positions (statically):
=====================================================================
 Subroutine PRICEL returns:
 Original cell was already a primitive cell.
 

 Routine SETGRP: Setting up the symmetry group for a 
 face centered cubic supercell.


 Subroutine GETGRP returns: Found 48 space group operations
 (whereof 48 operations were pure point group operations)
 out of a pool of 48 trial point group operations.


The static configuration has the point symmetry O_h .


Analysis of symmetry for dynamics (positions and initial velocities):
=====================================================================
 Subroutine PRICEL returns:
 Original cell was already a primitive cell.
 

 Routine SETGRP: Setting up the symmetry group for a 
 face centered cubic supercell.


 Subroutine GETGRP returns: Found 48 space group operations
 (whereof 48 operations were pure point group operations)
 out of a pool of 48 trial point group operations.


The dynamic configuration has the point symmetry O_h .
 
 
 KPOINTS: k-points for bandstructure L-G-X-U K-G  
  interpolating k-points between supplied coordinates
  k-points in reciprocal lattice
Space group operators:
 irot       det(A)        alpha          n_x          n_y          n_z        tau_x        tau_y        tau_z
    1     1.000000     0.000000     1.000000     0.000000     0.000000     0.000000     0.000000     0.000000
    2    -1.000000     0.000000     1.000000     0.000000     0.000000     0.000000     0.000000     0.000000
    3     1.000000   120.000000    -0.577350    -0.577350    -0.577350     0.000000     0.000000     0.000000
    4    -1.000000   120.000000    -0.577350    -0.577350    -0.577350     0.000000     0.000000     0.000000
    5     1.000000   120.000000     0.577350     0.577350     0.577350     0.000000     0.000000     0.000000
    6    -1.000000   120.000000     0.577350     0.577350     0.577350     0.000000     0.000000     0.000000
    7     1.000000    90.000000     0.000000    -1.000000     0.000000     0.000000     0.000000     0.000000
    8    -1.000000    90.000000     0.000000    -1.000000     0.000000     0.000000     0.000000     0.000000
    9     1.000000   180.000000     0.707107     0.707107     0.000000     0.000000     0.000000     0.000000
   10    -1.000000   180.000000     0.707107     0.707107     0.000000     0.000000     0.000000     0.000000
   11     1.000000    90.000000     1.000000     0.000000     0.000000     0.000000     0.000000     0.000000
   12    -1.000000    90.000000     1.000000     0.000000     0.000000     0.000000     0.000000     0.000000
   13     1.000000   180.000000     0.000000     1.000000     0.000000     0.000000     0.000000     0.000000
   14    -1.000000   180.000000     0.000000     1.000000     0.000000     0.000000     0.000000     0.000000
   15     1.000000   120.000000     0.577350     0.577350    -0.577350     0.000000     0.000000     0.000000
   16    -1.000000   120.000000     0.577350     0.577350    -0.577350     0.000000     0.000000     0.000000
   17     1.000000   120.000000     0.577350    -0.577350    -0.577350     0.000000     0.000000     0.000000
   18    -1.000000   120.000000     0.577350    -0.577350    -0.577350     0.000000     0.000000     0.000000
   19     1.000000    90.000000     0.000000     1.000000     0.000000     0.000000     0.000000     0.000000
   20    -1.000000    90.000000     0.000000     1.000000     0.000000     0.000000     0.000000     0.000000
   21     1.000000    90.000000     0.000000     0.000000    -1.000000     0.000000     0.000000     0.000000
   22    -1.000000    90.000000     0.000000     0.000000    -1.000000     0.000000     0.000000     0.000000
   23     1.000000   180.000000     0.000000     0.707107     0.707107     0.000000     0.000000     0.000000
   24    -1.000000   180.000000     0.000000     0.707107     0.707107     0.000000     0.000000     0.000000
   25     1.000000   120.000000    -0.577350     0.577350     0.577350     0.000000     0.000000     0.000000
   26    -1.000000   120.000000    -0.577350     0.577350     0.577350     0.000000     0.000000     0.000000
   27     1.000000   120.000000    -0.577350     0.577350    -0.577350     0.000000     0.000000     0.000000
   28    -1.000000   120.000000    -0.577350     0.577350    -0.577350     0.000000     0.000000     0.000000
   29     1.000000   179.999999     0.000000     0.000000     1.000000     0.000000     0.000000     0.000000
   30    -1.000000   179.999999     0.000000     0.000000     1.000000     0.000000     0.000000     0.000000
   31     1.000000    90.000000    -1.000000     0.000000     0.000000     0.000000     0.000000     0.000000
   32    -1.000000    90.000000    -1.000000     0.000000     0.000000     0.000000     0.000000     0.000000
   33     1.000000   180.000000     0.707107     0.000000     0.707107     0.000000     0.000000     0.000000
   34    -1.000000   180.000000     0.707107     0.000000     0.707107     0.000000     0.000000     0.000000
   35     1.000000    90.000000     0.000000     0.000000     1.000000     0.000000     0.000000     0.000000
   36    -1.000000    90.000000     0.000000     0.000000     1.000000     0.000000     0.000000     0.000000
   37     1.000000   120.000000    -0.577350    -0.577350     0.577350     0.000000     0.000000     0.000000
   38    -1.000000   120.000000    -0.577350    -0.577350     0.577350     0.000000     0.000000     0.000000
   39     1.000000   180.000000     1.000000     0.000000     0.000000     0.000000     0.000000     0.000000
   40    -1.000000   180.000000     1.000000     0.000000     0.000000     0.000000     0.000000     0.000000
   41     1.000000   120.000000     0.577350    -0.577350     0.577350     0.000000     0.000000     0.000000
   42    -1.000000   120.000000     0.577350    -0.577350     0.577350     0.000000     0.000000     0.000000
   43     1.000000   180.000000     0.707107    -0.707107     0.000000     0.000000     0.000000     0.000000
   44    -1.000000   180.000000     0.707107    -0.707107     0.000000     0.000000     0.000000     0.000000
   45     1.000000   180.000000     0.707107     0.000000    -0.707107     0.000000     0.000000     0.000000
   46    -1.000000   180.000000     0.707107     0.000000    -0.707107     0.000000     0.000000     0.000000
   47     1.000000   180.000000     0.000000    -0.707107     0.707107     0.000000     0.000000     0.000000
   48    -1.000000   180.000000     0.000000    -0.707107     0.707107     0.000000     0.000000     0.000000


--------------------------------------------------------------------------------------------------------




 Dimension of arrays:
   k-points           NKPTS =    400   k-points in BZ     NKDIM =    400   number of bands    NBANDS=      6
   number of dos      NEDOS =    301   number of ions     NIONS =      1
   non local maximal  LDIM  =      4   non local SUM 2l+1 LMDIM =      8
   total plane-waves  NPLWV =   1000
   max r-space proj   IRMAX =      1   max aug-charges    IRDMAX=   2454
   dimension x,y,z NGX =    10 NGY =   10 NGZ =   10
   dimension x,y,z NGXF=    20 NGYF=   20 NGZF=   20
   support grid    NGXF=    20 NGYF=   20 NGZF=   20
   ions per type =               1
 NGX,Y,Z   is equivalent  to a cutoff of   6.03,  6.03,  6.03 a.u.
 NGXF,Y,Z  is equivalent  to a cutoff of  12.06, 12.06, 12.06 a.u.


 I would recommend the setting:
   dimension x,y,z NGX =    10 NGY =   10 NGZ =   10
 SYSTEM =  fcc Si                                  
 POSCAR =  fcc:                                    

 Startparameter for this run:
   NWRITE =      2    write-flag & timer
   PREC   = normal    normal or accurate (medium, high low for compatibility)
   ISTART =      1    job   : 0-new  1-cont  2-samecut
   ICHARG =     11    charge: 1-file 2-atom 10-const
   ISPIN  =      1    spin polarized calculation?
   LNONCOLLINEAR =      F non collinear calculations
   LSORBIT =      F    spin-orbit coupling
   INIWAV =      1    electr: 0-lowe 1-rand  2-diag
   LASPH  =      F    aspherical Exc in radial PAW
   METAGGA=      F    non-selfconsistent MetaGGA calc.

 Electronic Relaxation 1
   ENCUT  =  240.0 eV  17.64 Ry    4.20 a.u.   3.48  3.48  3.48*2*pi/ulx,y,z
   ENINI  =  240.0     initial cutoff
   ENAUG  =  322.1 eV  augmentation charge cutoff
   NELM   =     60;   NELMIN=  2; NELMDL=  0     # of ELM steps 
   EDIFF  = 0.1E-03   stopping-criterion for ELM
   LREAL  =      F    real-space projection
   NLSPLINE    = F    spline interpolate recip. space projectors
   LCOMPAT=      F    compatible to vasp.4.4
   GGA_COMPAT  = T    GGA compatible to vasp.4.4-vasp.4.6
   LMAXPAW     = -100 max onsite density
   LMAXMIX     =    2 max onsite mixed and CHGCAR
   VOSKOWN=      0    Vosko Wilk Nusair interpolation
   ROPT   =    0.00000
 Ionic relaxation
   EDIFFG = 0.1E-02   stopping-criterion for IOM
   NSW    =      0    number of steps for IOM
   NBLOCK =      1;   KBLOCK =      1    inner block; outer block 
   IBRION =     -1    ionic relax: 0-MD 1-quasi-New 2-CG
   NFREE  =      0    steps in history (QN), initial steepest desc. (CG)
   ISIF   =      2    stress and relaxation
   IWAVPR =     10    prediction:  0-non 1-charg 2-wave 3-comb
   ISYM   =      2    0-nonsym 1-usesym 2-fastsym
   LCORR  =      T    Harris-Foulkes like correction to forces

   POTIM  = 0.5000    time-step for ionic-motion
   TEIN   =    0.0    initial temperature
   TEBEG  =    0.0;   TEEND  =   0.0 temperature during run
   SMASS  =  -3.00    Nose mass-parameter (am)
   estimated Nose-frequenzy (Omega)   =  0.10E-29 period in steps =****** mass=  -0.174E-27a.u.
   SCALEE = 1.0000    scale energy and forces
   NPACO  =    256;   APACO  = 16.0  distance and # of slots for P.C.
   PSTRESS=    0.0 pullay stress

  Mass of Ions in am
   POMASS =  28.09
  Ionic Valenz
   ZVAL   =   4.00
  Atomic Wigner-Seitz radii
   RWIGS  =  -1.00
  virtual crystal weights 
   VCA    =   1.00
   NELECT =       4.0000    total number of electrons
   NUPDOWN=      -1.0000    fix difference up-down

 DOS related values:
   EMIN   =  10.00;   EMAX   =-10.00  energy-range for DOS
   EFERMI =   0.00
   ISMEAR =     0;   SIGMA  =   0.01  broadening in eV -4-tet -1-fermi 0-gaus

 Electronic relaxation 2 (details)
   IALGO  =     38    algorithm
   LDIAG  =      T    sub-space diagonalisation (order eigenvalues)
   LSUBROT=      F    optimize rotation matrix (better conditioning)
   TURBO    =      0    0=normal 1=particle mesh
   IRESTART =      0    0=no restart 2=restart with 2 vectors
   NREBOOT  =      0    no. of reboots
   NMIN     =      0    reboot dimension
   EREF     =   0.00    reference energy to select bands
   IMIX   =      4    mixing-type and parameters
     AMIX     =   0.40;   BMIX     =  1.00
     AMIX_MAG =   1.60;   BMIX_MAG =  1.00
     AMIN     =   0.10
     WC   =   100.;   INIMIX=   1;  MIXPRE=   1;  MAXMIX= -45

 Intra band minimization:
   WEIMIN = 0.0000     energy-eigenvalue tresh-hold
   EBREAK =  0.42E-05  absolut break condition
   DEPER  =   0.30     relativ break condition  

   TIME   =   0.40     timestep for ELM

  volume/ion in A,a.u.               =      14.83       100.08
  Fermi-wavevector in a.u.,A,eV,Ry     =   1.057751  1.998860 15.222711  1.118838
  Thomas-Fermi vector in A             =   2.193036
 
 Write flags
   LWAVE  =      T    write WAVECAR
   LCHARG =      T    write CHGCAR
   LVTOT  =      F    write LOCPOT, total local potential
   LVHAR  =      F    write LOCPOT, Hartree potential only
   LELF   =      F    write electronic localiz. function (ELF)
   LORBIT =     11    0 simple, 1 ext, 2 COOP (PROOUT)


 Dipole corrections
   LMONO  =      F    monopole corrections only (constant potential shift)
   LDIPOL =      F    correct potential (dipole corrections)
   IDIPOL =      0    1-x, 2-y, 3-z, 4-all directions 
   EPSILON=  1.0000000 bulk dielectric constant

 Exchange correlation treatment:
   GGA     =    --    GGA type
   LEXCH   =     8    internal setting for exchange type
   VOSKOWN=      0    Vosko Wilk Nusair interpolation
   LHFCALC =     F    Hartree Fock is set to
   LHFONE  =     F    Hartree Fock one center treatment
   AEXX    =    0.0000 exact exchange contribution

 Linear response parameters
   LEPSILON=     F    determine dielectric tensor
   LRPA    =     F    only Hartree local field effects (RPA)
   LNABLA  =     F    use nabla operator in PAW spheres
   LVEL    =     F    velocity operator in full k-point grid
   LINTERFAST=   F  fast interpolation
   KINTER  =     0    interpolate to denser k-point grid
   CSHIFT  =0.1000    complex shift for real part using Kramers Kronig
   OMEGAMAX=  -1.0    maximum frequency
   DEG_THRESHOLD= 0.2000000E-02 threshold for treating states as degnerate
   RTIME   =    0.100 relaxation time in fs

 Orbital magnetization related:
   ORBITALMAG=     F  switch on orbital magnetization
   LCHIMAG   =     F  perturbation theory with respect to B field
   DQ        =  0.001000  dq finite difference perturbation B field



--------------------------------------------------------------------------------------------------------


 Static calculation
 charge density and potential remain constant during run
 non-spin polarized calculation
 Variant of blocked Davidson
 Davidson routine will perform the subspace rotation
 perform sub-space diagonalisation
    after iterative eigenvector-optimisation
 no mixing
 using additional bands            4
 reciprocal scheme for non local part
 use partial core corrections
 calculate Harris-corrections to forces 
   (improved forces if not selfconsistent)
 use gradient corrections 
 WARNING: stress and forces are not correct
  (second derivative of E(xc) not defined)
 use of overlap-Matrix (Vanderbilt PP)
 Gauss-broadening in eV      SIGMA  =   0.01


--------------------------------------------------------------------------------------------------------


  energy-cutoff  :      240.00
  volume of cell :       14.83
      direct lattice vectors                 reciprocal lattice vectors
     1.950000000  1.950000000  0.000000000     0.256410256  0.256410256 -0.256410256
     0.000000000  1.950000000  1.950000000    -0.256410256  0.256410256  0.256410256
     1.950000000  0.000000000  1.950000000     0.256410256 -0.256410256  0.256410256

  length of vectors
     2.757716447  2.757716447  2.757716447     0.444115592  0.444115592  0.444115592


 
 old parameters found on file WAVECAR:
  energy-cutoff  :      240.00
  volume of cell :       14.83
      direct lattice vectors                 reciprocal lattice vectors
     1.950000000  1.950000000  0.000000000     0.256410256  0.256410256 -0.256410256
     0.000000000  1.950000000  1.950000000    -0.256410256  0.256410256  0.256410256
     1.950000000  0.000000000  1.950000000     0.256410256 -0.256410256  0.256410256

  length of vectors

 
 k-points in units of 2pi/SCALE and weight: k-points for bandstructure L-G-X-U K-G  
   0.50000000  0.50000000  0.50000000       0.003
   0.49494949  0.49494949  0.49494949       0.003
   0.48989899  0.48989899  0.48989899       0.003
   0.48484848  0.48484848  0.48484848       0.003
   0.47979798  0.47979798  0.47979798       0.003
   0.47474747  0.47474747  0.47474747       0.003
   0.46969697  0.46969697  0.46969697       0.003
   0.46464646  0.46464646  0.46464646       0.003
   0.45959596  0.45959596  0.45959596       0.003
   0.45454545  0.45454545  0.45454545       0.003
   0.44949495  0.44949495  0.44949495       0.003
   0.44444444  0.44444444  0.44444444       0.003
   0.43939394  0.43939394  0.43939394       0.003
   0.43434343  0.43434343  0.43434343       0.003
   0.42929293  0.42929293  0.42929293       0.003
   0.42424242  0.42424242  0.42424242       0.003
   0.41919192  0.41919192  0.41919192       0.003
   0.41414141  0.41414141  0.41414141       0.003
   0.40909091  0.40909091  0.40909091       0.003
   0.40404040  0.40404040  0.40404040       0.003
   0.39898990  0.39898990  0.39898990       0.003
   0.39393939  0.39393939  0.39393939       0.003
   0.38888889  0.38888889  0.38888889       0.003
   0.38383838  0.38383838  0.38383838       0.003
   0.37878788  0.37878788  0.37878788       0.003
   0.37373737  0.37373737  0.37373737       0.003
   0.36868687  0.36868687  0.36868687       0.003
   0.36363636  0.36363636  0.36363636       0.003
   0.35858586  0.35858586  0.35858586       0.003
   0.35353535  0.35353535  0.35353535       0.003
   0.34848485  0.34848485  0.34848485       0.003
   0.34343434  0.34343434  0.34343434       0.003
   0.33838384  0.33838384  0.33838384       0.003
   0.33333333  0.33333333  0.33333333       0.003
   0.32828283  0.32828283  0.32828283       0.003
   0.32323232  0.32323232  0.32323232       0.003
   0.31818182  0.31818182  0.31818182       0.003
   0.31313131  0.31313131  0.31313131       0.003
   0.30808081  0.30808081  0.30808081       0.003
   0.30303030  0.30303030  0.30303030       0.003
   0.29797980  0.29797980  0.29797980       0.003
   0.29292929  0.29292929  0.29292929       0.003
   0.28787879  0.28787879  0.28787879       0.003
   0.28282828  0.28282828  0.28282828       0.003
   0.27777778  0.27777778  0.27777778       0.003
   0.27272727  0.27272727  0.27272727       0.003
   0.26767677  0.26767677  0.26767677       0.003
   0.26262626  0.26262626  0.26262626       0.003
   0.25757576  0.25757576  0.25757576       0.003
   0.25252525  0.25252525  0.25252525       0.003
   0.24747475  0.24747475  0.24747475       0.003
   0.24242424  0.24242424  0.24242424       0.003
   0.23737374  0.23737374  0.23737374       0.003
   0.23232323  0.23232323  0.23232323       0.003
   0.22727273  0.22727273  0.22727273       0.003
   0.22222222  0.22222222  0.22222222       0.003
   0.21717172  0.21717172  0.21717172       0.003
   0.21212121  0.21212121  0.21212121       0.003
   0.20707071  0.20707071  0.20707071       0.003
   0.20202020  0.20202020  0.20202020       0.003
   0.19696970  0.19696970  0.19696970       0.003
   0.19191919  0.19191919  0.19191919       0.003
   0.18686869  0.18686869  0.18686869       0.003
   0.18181818  0.18181818  0.18181818       0.003
   0.17676768  0.17676768  0.17676768       0.003
   0.17171717  0.17171717  0.17171717       0.003
   0.16666667  0.16666667  0.16666667       0.003
   0.16161616  0.16161616  0.16161616       0.003
   0.15656566  0.15656566  0.15656566       0.003
   0.15151515  0.15151515  0.15151515       0.003
   0.14646465  0.14646465  0.14646465       0.003
   0.14141414  0.14141414  0.14141414       0.003
   0.13636364  0.13636364  0.13636364       0.003
   0.13131313  0.13131313  0.13131313       0.003
   0.12626263  0.12626263  0.12626263       0.003
   0.12121212  0.12121212  0.12121212       0.003
   0.11616162  0.11616162  0.11616162       0.003
   0.11111111  0.11111111  0.11111111       0.003
   0.10606061  0.10606061  0.10606061       0.003
   0.10101010  0.10101010  0.10101010       0.003
   0.09595960  0.09595960  0.09595960       0.003
   0.09090909  0.09090909  0.09090909       0.003
   0.08585859  0.08585859  0.08585859       0.003
   0.08080808  0.08080808  0.08080808       0.003
   0.07575758  0.07575758  0.07575758       0.003
   0.07070707  0.07070707  0.07070707       0.003
   0.06565657  0.06565657  0.06565657       0.003
   0.06060606  0.06060606  0.06060606       0.003
   0.05555556  0.05555556  0.05555556       0.003
   0.05050505  0.05050505  0.05050505       0.003
   0.04545455  0.04545455  0.04545455       0.003
   0.04040404  0.04040404  0.04040404       0.003
   0.03535354  0.03535354  0.03535354       0.003
   0.03030303  0.03030303  0.03030303       0.003
   0.02525253  0.02525253  0.02525253       0.003
   0.02020202  0.02020202  0.02020202       0.003
   0.01515152  0.01515152  0.01515152       0.003
   0.01010101  0.01010101  0.01010101       0.003
   0.00505051  0.00505051  0.00505051       0.003
   0.00000000  0.00000000  0.00000000       0.003
   0.00000000  0.00000000  0.00000000       0.003
   0.00000000  0.00000000  0.01010101       0.003
   0.00000000  0.00000000  0.02020202       0.003
   0.00000000  0.00000000  0.03030303       0.003
   0.00000000  0.00000000  0.04040404       0.003
   0.00000000  0.00000000  0.05050505       0.003
   0.00000000  0.00000000  0.06060606       0.003
   0.00000000  0.00000000  0.07070707       0.003
   0.00000000  0.00000000  0.08080808       0.003
   0.00000000  0.00000000  0.09090909       0.003
   0.00000000  0.00000000  0.10101010       0.003
   0.00000000  0.00000000  0.11111111       0.003
   0.00000000  0.00000000  0.12121212       0.003
   0.00000000  0.00000000  0.13131313       0.003
   0.00000000  0.00000000  0.14141414       0.003
   0.00000000  0.00000000  0.15151515       0.003
   0.00000000  0.00000000  0.16161616       0.003
   0.00000000  0.00000000  0.17171717       0.003
   0.00000000  0.00000000  0.18181818       0.003
   0.00000000  0.00000000  0.19191919       0.003
   0.00000000  0.00000000  0.20202020       0.003
   0.00000000  0.00000000  0.21212121       0.003
   0.00000000  0.00000000  0.22222222       0.003
   0.00000000  0.00000000  0.23232323       0.003
   0.00000000  0.00000000  0.24242424       0.003
   0.00000000  0.00000000  0.25252525       0.003
   0.00000000  0.00000000  0.26262626       0.003
   0.00000000  0.00000000  0.27272727       0.003
   0.00000000  0.00000000  0.28282828       0.003
   0.00000000  0.00000000  0.29292929       0.003
   0.00000000  0.00000000  0.30303030       0.003
   0.00000000  0.00000000  0.31313131       0.003
   0.00000000  0.00000000  0.32323232       0.003
   0.00000000  0.00000000  0.33333333       0.003
   0.00000000  0.00000000  0.34343434       0.003
   0.00000000  0.00000000  0.35353535       0.003
   0.00000000  0.00000000  0.36363636       0.003
   0.00000000  0.00000000  0.37373737       0.003
   0.00000000  0.00000000  0.38383838       0.003
   0.00000000  0.00000000  0.39393939       0.003
   0.00000000  0.00000000  0.40404040       0.003
   0.00000000  0.00000000  0.41414141       0.003
   0.00000000  0.00000000  0.42424242       0.003
   0.00000000  0.00000000  0.43434343       0.003
   0.00000000  0.00000000  0.44444444       0.003
   0.00000000  0.00000000  0.45454545       0.003
   0.00000000  0.00000000  0.46464646       0.003
   0.00000000  0.00000000  0.47474747       0.003
   0.00000000  0.00000000  0.48484848       0.003
   0.00000000  0.00000000  0.49494949       0.003
   0.00000000  0.00000000  0.50505051       0.003
   0.00000000  0.00000000  0.51515152       0.003
   0.00000000  0.00000000  0.52525253       0.003
   0.00000000  0.00000000  0.53535354       0.003
   0.00000000  0.00000000  0.54545455       0.003
   0.00000000  0.00000000  0.55555556       0.003
   0.00000000  0.00000000  0.56565657       0.003
   0.00000000  0.00000000  0.57575758       0.003
   0.00000000  0.00000000  0.58585859       0.003
   0.00000000  0.00000000  0.59595960       0.003
   0.00000000  0.00000000  0.60606061       0.003
   0.00000000  0.00000000  0.61616162       0.003
   0.00000000  0.00000000  0.62626263       0.003
   0.00000000  0.00000000  0.63636364       0.003
   0.00000000  0.00000000  0.64646465       0.003
   0.00000000  0.00000000  0.65656566       0.003
   0.00000000  0.00000000  0.66666667       0.003
   0.00000000  0.00000000  0.67676768       0.003
   0.00000000  0.00000000  0.68686869       0.003
   0.00000000  0.00000000  0.69696970       0.003
   0.00000000  0.00000000  0.70707071       0.003
   0.00000000  0.00000000  0.71717172       0.003
   0.00000000  0.00000000  0.72727273       0.003
   0.00000000  0.00000000  0.73737374       0.003
   0.00000000  0.00000000  0.74747475       0.003
   0.00000000  0.00000000  0.75757576       0.003
   0.00000000  0.00000000  0.76767677       0.003
   0.00000000  0.00000000  0.77777778       0.003
   0.00000000  0.00000000  0.78787879       0.003
   0.00000000  0.00000000  0.79797980       0.003
   0.00000000  0.00000000  0.80808081       0.003
   0.00000000  0.00000000  0.81818182       0.003
   0.00000000  0.00000000  0.82828283       0.003
   0.00000000  0.00000000  0.83838384       0.003
   0.00000000  0.00000000  0.84848485       0.003
   0.00000000  0.00000000  0.85858586       0.003
   0.00000000  0.00000000  0.86868687       0.003
   0.00000000  0.00000000  0.87878788       0.003
   0.00000000  0.00000000  0.88888889       0.003
   0.00000000  0.00000000  0.89898990       0.003
   0.00000000  0.00000000  0.90909091       0.003
   0.00000000  0.00000000  0.91919192       0.003
   0.00000000  0.00000000  0.92929293       0.003
   0.00000000  0.00000000  0.93939394       0.003
   0.00000000  0.00000000  0.94949495       0.003
   0.00000000  0.00000000  0.95959596       0.003
   0.00000000  0.00000000  0.96969697       0.003
   0.00000000  0.00000000  0.97979798       0.003
   0.00000000  0.00000000  0.98989899       0.003
   0.00000000  0.00000000  1.00000000       0.003
   0.00000000  0.00000000  1.00000000       0.003
   0.00252525  0.00252525  1.00000000       0.003
   0.00505051  0.00505051  1.00000000       0.003
   0.00757576  0.00757576  1.00000000       0.003
   0.01010101  0.01010101  1.00000000       0.003
   0.01262626  0.01262626  1.00000000       0.003
   0.01515152  0.01515152  1.00000000       0.003
   0.01767677  0.01767677  1.00000000       0.003
   0.02020202  0.02020202  1.00000000       0.003
   0.02272727  0.02272727  1.00000000       0.003
   0.02525253  0.02525253  1.00000000       0.003
   0.02777778  0.02777778  1.00000000       0.003
   0.03030303  0.03030303  1.00000000       0.003
   0.03282828  0.03282828  1.00000000       0.003
   0.03535354  0.03535354  1.00000000       0.003
   0.03787879  0.03787879  1.00000000       0.003
   0.04040404  0.04040404  1.00000000       0.003
   0.04292929  0.04292929  1.00000000       0.003
   0.04545455  0.04545455  1.00000000       0.003
   0.04797980  0.04797980  1.00000000       0.003
   0.05050505  0.05050505  1.00000000       0.003
   0.05303030  0.05303030  1.00000000       0.003
   0.05555556  0.05555556  1.00000000       0.003
   0.05808081  0.05808081  1.00000000       0.003
   0.06060606  0.06060606  1.00000000       0.003
   0.06313131  0.06313131  1.00000000       0.003
   0.06565657  0.06565657  1.00000000       0.003
   0.06818182  0.06818182  1.00000000       0.003
   0.07070707  0.07070707  1.00000000       0.003
   0.07323232  0.07323232  1.00000000       0.003
   0.07575758  0.07575758  1.00000000       0.003
   0.07828283  0.07828283  1.00000000       0.003
   0.08080808  0.08080808  1.00000000       0.003
   0.08333333  0.08333333  1.00000000       0.003
   0.08585859  0.08585859  1.00000000       0.003
   0.08838384  0.08838384  1.00000000       0.003
   0.09090909  0.09090909  1.00000000       0.003
   0.09343434  0.09343434  1.00000000       0.003
   0.09595960  0.09595960  1.00000000       0.003
   0.09848485  0.09848485  1.00000000       0.003
   0.10101010  0.10101010  1.00000000       0.003
   0.10353535  0.10353535  1.00000000       0.003
   0.10606061  0.10606061  1.00000000       0.003
   0.10858586  0.10858586  1.00000000       0.003
   0.11111111  0.11111111  1.00000000       0.003
   0.11363636  0.11363636  1.00000000       0.003
   0.11616162  0.11616162  1.00000000       0.003
   0.11868687  0.11868687  1.00000000       0.003
   0.12121212  0.12121212  1.00000000       0.003
   0.12373737  0.12373737  1.00000000       0.003
   0.12626263  0.12626263  1.00000000       0.003
   0.12878788  0.12878788  1.00000000       0.003
   0.13131313  0.13131313  1.00000000       0.003
   0.13383838  0.13383838  1.00000000       0.003
   0.13636364  0.13636364  1.00000000       0.003
   0.13888889  0.13888889  1.00000000       0.003
   0.14141414  0.14141414  1.00000000       0.003
   0.14393939  0.14393939  1.00000000       0.003
   0.14646465  0.14646465  1.00000000       0.003
   0.14898990  0.14898990  1.00000000       0.003
   0.15151515  0.15151515  1.00000000       0.003
   0.15404040  0.15404040  1.00000000       0.003
   0.15656566  0.15656566  1.00000000       0.003
   0.15909091  0.15909091  1.00000000       0.003
   0.16161616  0.16161616  1.00000000       0.003
   0.16414141  0.16414141  1.00000000       0.003
   0.16666667  0.16666667  1.00000000       0.003
   0.16919192  0.16919192  1.00000000       0.003
   0.17171717  0.17171717  1.00000000       0.003
   0.17424242  0.17424242  1.00000000       0.003
   0.17676768  0.17676768  1.00000000       0.003
   0.17929293  0.17929293  1.00000000       0.003
   0.18181818  0.18181818  1.00000000       0.003
   0.18434343  0.18434343  1.00000000       0.003
   0.18686869  0.18686869  1.00000000       0.003
   0.18939394  0.18939394  1.00000000       0.003
   0.19191919  0.19191919  1.00000000       0.003
   0.19444444  0.19444444  1.00000000       0.003
   0.19696970  0.19696970  1.00000000       0.003
   0.19949495  0.19949495  1.00000000       0.003
   0.20202020  0.20202020  1.00000000       0.003
   0.20454545  0.20454545  1.00000000       0.003
   0.20707071  0.20707071  1.00000000       0.003
   0.20959596  0.20959596  1.00000000       0.003
   0.21212121  0.21212121  1.00000000       0.003
   0.21464646  0.21464646  1.00000000       0.003
   0.21717172  0.21717172  1.00000000       0.003
   0.21969697  0.21969697  1.00000000       0.003
   0.22222222  0.22222222  1.00000000       0.003
   0.22474747  0.22474747  1.00000000       0.003
   0.22727273  0.22727273  1.00000000       0.003
   0.22979798  0.22979798  1.00000000       0.003
   0.23232323  0.23232323  1.00000000       0.003
   0.23484848  0.23484848  1.00000000       0.003
   0.23737374  0.23737374  1.00000000       0.003
   0.23989899  0.23989899  1.00000000       0.003
   0.24242424  0.24242424  1.00000000       0.003
   0.24494949  0.24494949  1.00000000       0.003
   0.24747475  0.24747475  1.00000000       0.003
   0.25000000  0.25000000  1.00000000       0.003
   0.00000000  0.75000000  0.75000000       0.003
   0.00000000  0.74242424  0.74242424       0.003
   0.00000000  0.73484848  0.73484848       0.003
   0.00000000  0.72727273  0.72727273       0.003
   0.00000000  0.71969697  0.71969697       0.003
   0.00000000  0.71212121  0.71212121       0.003
   0.00000000  0.70454545  0.70454545       0.003
   0.00000000  0.69696970  0.69696970       0.003
   0.00000000  0.68939394  0.68939394       0.003
   0.00000000  0.68181818  0.68181818       0.003
   0.00000000  0.67424242  0.67424242       0.003
   0.00000000  0.66666667  0.66666667       0.003
   0.00000000  0.65909091  0.65909091       0.003
   0.00000000  0.65151515  0.65151515       0.003
   0.00000000  0.64393939  0.64393939       0.003
   0.00000000  0.63636364  0.63636364       0.003
   0.00000000  0.62878788  0.62878788       0.003
   0.00000000  0.62121212  0.62121212       0.003
   0.00000000  0.61363636  0.61363636       0.003
   0.00000000  0.60606061  0.60606061       0.003
   0.00000000  0.59848485  0.59848485       0.003
   0.00000000  0.59090909  0.59090909       0.003
   0.00000000  0.58333333  0.58333333       0.003
   0.00000000  0.57575758  0.57575758       0.003
   0.00000000  0.56818182  0.56818182       0.003
   0.00000000  0.56060606  0.56060606       0.003
   0.00000000  0.55303030  0.55303030       0.003
   0.00000000  0.54545455  0.54545455       0.003
   0.00000000  0.53787879  0.53787879       0.003
   0.00000000  0.53030303  0.53030303       0.003
   0.00000000  0.52272727  0.52272727       0.003
   0.00000000  0.51515152  0.51515152       0.003
   0.00000000  0.50757576  0.50757576       0.003
   0.00000000  0.50000000  0.50000000       0.003
   0.00000000  0.49242424  0.49242424       0.003
   0.00000000  0.48484848  0.48484848       0.003
   0.00000000  0.47727273  0.47727273       0.003
   0.00000000  0.46969697  0.46969697       0.003
   0.00000000  0.46212121  0.46212121       0.003
   0.00000000  0.45454545  0.45454545       0.003
   0.00000000  0.44696970  0.44696970       0.003
   0.00000000  0.43939394  0.43939394       0.003
   0.00000000  0.43181818  0.43181818       0.003
   0.00000000  0.42424242  0.42424242       0.003
   0.00000000  0.41666667  0.41666667       0.003
   0.00000000  0.40909091  0.40909091       0.003
   0.00000000  0.40151515  0.40151515       0.003
   0.00000000  0.39393939  0.39393939       0.003
   0.00000000  0.38636364  0.38636364       0.003
   0.00000000  0.37878788  0.37878788       0.003
   0.00000000  0.37121212  0.37121212       0.003
   0.00000000  0.36363636  0.36363636       0.003
   0.00000000  0.35606061  0.35606061       0.003
   0.00000000  0.34848485  0.34848485       0.003
   0.00000000  0.34090909  0.34090909       0.003
   0.00000000  0.33333333  0.33333333       0.003
   0.00000000  0.32575758  0.32575758       0.003
   0.00000000  0.31818182  0.31818182       0.003
   0.00000000  0.31060606  0.31060606       0.003
   0.00000000  0.30303030  0.30303030       0.003
   0.00000000  0.29545455  0.29545455       0.003
   0.00000000  0.28787879  0.28787879       0.003
   0.00000000  0.28030303  0.28030303       0.003
   0.00000000  0.27272727  0.27272727       0.003
   0.00000000  0.26515152  0.26515152       0.003
   0.00000000  0.25757576  0.25757576       0.003
   0.00000000  0.25000000  0.25000000       0.003
   0.00000000  0.24242424  0.24242424       0.003
   0.00000000  0.23484848  0.23484848       0.003
   0.00000000  0.22727273  0.22727273       0.003
   0.00000000  0.21969697  0.21969697       0.003
   0.00000000  0.21212121  0.21212121       0.003
   0.00000000  0.20454545  0.20454545       0.003
   0.00000000  0.19696970  0.19696970       0.003
   0.00000000  0.18939394  0.18939394       0.003
   0.00000000  0.18181818  0.18181818       0.003
   0.00000000  0.17424242  0.17424242       0.003
   0.00000000  0.16666667  0.16666667       0.003
   0.00000000  0.15909091  0.15909091       0.003
   0.00000000  0.15151515  0.15151515       0.003
   0.00000000  0.14393939  0.14393939       0.003
   0.00000000  0.13636364  0.13636364       0.003
   0.00000000  0.12878788  0.12878788       0.003
   0.00000000  0.12121212  0.12121212       0.003
   0.00000000  0.11363636  0.11363636       0.003
   0.00000000  0.10606061  0.10606061       0.003
   0.00000000  0.09848485  0.09848485       0.003
   0.00000000  0.09090909  0.09090909       0.003
   0.00000000  0.08333333  0.08333333       0.003
   0.00000000  0.07575758  0.07575758       0.003
   0.00000000  0.06818182  0.06818182       0.003
   0.00000000  0.06060606  0.06060606       0.003
   0.00000000  0.05303030  0.05303030       0.003
   0.00000000  0.04545455  0.04545455       0.003
   0.00000000  0.03787879  0.03787879       0.003
   0.00000000  0.03030303  0.03030303       0.003
   0.00000000  0.02272727  0.02272727       0.003
   0.00000000  0.01515152  0.01515152       0.003
   0.00000000  0.00757576  0.00757576       0.003
   0.00000000  0.00000000  0.00000000       0.003
 
 k-points in reciprocal lattice and weights: k-points for bandstructure L-G-X-U K-G  
   0.50000000  0.50000000  0.50000000       0.003
   0.49494949  0.49494949  0.49494949       0.003
   0.48989899  0.48989899  0.48989899       0.003
   0.48484848  0.48484848  0.48484848       0.003
   0.47979798  0.47979798  0.47979798       0.003
   0.47474747  0.47474747  0.47474747       0.003
   0.46969697  0.46969697  0.46969697       0.003
   0.46464646  0.46464646  0.46464646       0.003
   0.45959596  0.45959596  0.45959596       0.003
   0.45454545  0.45454545  0.45454545       0.003
   0.44949495  0.44949495  0.44949495       0.003
   0.44444444  0.44444444  0.44444444       0.003
   0.43939394  0.43939394  0.43939394       0.003
   0.43434343  0.43434343  0.43434343       0.003
   0.42929293  0.42929293  0.42929293       0.003
   0.42424242  0.42424242  0.42424242       0.003
   0.41919192  0.41919192  0.41919192       0.003
   0.41414141  0.41414141  0.41414141       0.003
   0.40909091  0.40909091  0.40909091       0.003
   0.40404040  0.40404040  0.40404040       0.003
   0.39898990  0.39898990  0.39898990       0.003
   0.39393939  0.39393939  0.39393939       0.003
   0.38888889  0.38888889  0.38888889       0.003
   0.38383838  0.38383838  0.38383838       0.003
   0.37878788  0.37878788  0.37878788       0.003
   0.37373737  0.37373737  0.37373737       0.003
   0.36868687  0.36868687  0.36868687       0.003
   0.36363636  0.36363636  0.36363636       0.003
   0.35858586  0.35858586  0.35858586       0.003
   0.35353535  0.35353535  0.35353535       0.003
   0.34848485  0.34848485  0.34848485       0.003
   0.34343434  0.34343434  0.34343434       0.003
   0.33838384  0.33838384  0.33838384       0.003
   0.33333333  0.33333333  0.33333333       0.003
   0.32828283  0.32828283  0.32828283       0.003
   0.32323232  0.32323232  0.32323232       0.003
   0.31818182  0.31818182  0.31818182       0.003
   0.31313131  0.31313131  0.31313131       0.003
   0.30808081  0.30808081  0.30808081       0.003
   0.30303030  0.30303030  0.30303030       0.003
   0.29797980  0.29797980  0.29797980       0.003
   0.29292929  0.29292929  0.29292929       0.003
   0.28787879  0.28787879  0.28787879       0.003
   0.28282828  0.28282828  0.28282828       0.003
   0.27777778  0.27777778  0.27777778       0.003
   0.27272727  0.27272727  0.27272727       0.003
   0.26767677  0.26767677  0.26767677       0.003
   0.26262626  0.26262626  0.26262626       0.003
   0.25757576  0.25757576  0.25757576       0.003
   0.25252525  0.25252525  0.25252525       0.003
   0.24747475  0.24747475  0.24747475       0.003
   0.24242424  0.24242424  0.24242424       0.003
   0.23737374  0.23737374  0.23737374       0.003
   0.23232323  0.23232323  0.23232323       0.003
   0.22727273  0.22727273  0.22727273       0.003
   0.22222222  0.22222222  0.22222222       0.003
   0.21717172  0.21717172  0.21717172       0.003
   0.21212121  0.21212121  0.21212121       0.003
   0.20707071  0.20707071  0.20707071       0.003
   0.20202020  0.20202020  0.20202020       0.003
   0.19696970  0.19696970  0.19696970       0.003
   0.19191919  0.19191919  0.19191919       0.003
   0.18686869  0.18686869  0.18686869       0.003
   0.18181818  0.18181818  0.18181818       0.003
   0.17676768  0.17676768  0.17676768       0.003
   0.17171717  0.17171717  0.17171717       0.003
   0.16666667  0.16666667  0.16666667       0.003
   0.16161616  0.16161616  0.16161616       0.003
   0.15656566  0.15656566  0.15656566       0.003
   0.15151515  0.15151515  0.15151515       0.003
   0.14646465  0.14646465  0.14646465       0.003
   0.14141414  0.14141414  0.14141414       0.003
   0.13636364  0.13636364  0.13636364       0.003
   0.13131313  0.13131313  0.13131313       0.003
   0.12626263  0.12626263  0.12626263       0.003
   0.12121212  0.12121212  0.12121212       0.003
   0.11616162  0.11616162  0.11616162       0.003
   0.11111111  0.11111111  0.11111111       0.003
   0.10606061  0.10606061  0.10606061       0.003
   0.10101010  0.10101010  0.10101010       0.003
   0.09595960  0.09595960  0.09595960       0.003
   0.09090909  0.09090909  0.09090909       0.003
   0.08585859  0.08585859  0.08585859       0.003
   0.08080808  0.08080808  0.08080808       0.003
   0.07575758  0.07575758  0.07575758       0.003
   0.07070707  0.07070707  0.07070707       0.003
   0.06565657  0.06565657  0.06565657       0.003
   0.06060606  0.06060606  0.06060606       0.003
   0.05555556  0.05555556  0.05555556       0.003
   0.05050505  0.05050505  0.05050505       0.003
   0.04545455  0.04545455  0.04545455       0.003
   0.04040404  0.04040404  0.04040404       0.003
   0.03535354  0.03535354  0.03535354       0.003
   0.03030303  0.03030303  0.03030303       0.003
   0.02525253  0.02525253  0.02525253       0.003
   0.02020202  0.02020202  0.02020202       0.003
   0.01515152  0.01515152  0.01515152       0.003
   0.01010101  0.01010101  0.01010101       0.003
   0.00505051  0.00505051  0.00505051       0.003
   0.00000000  0.00000000  0.00000000       0.003
   0.00000000  0.00000000  0.00000000       0.003
   0.00000000  0.00505051  0.00505051       0.003
   0.00000000  0.01010101  0.01010101       0.003
   0.00000000  0.01515152  0.01515152       0.003
   0.00000000  0.02020202  0.02020202       0.003
   0.00000000  0.02525253  0.02525253       0.003
   0.00000000  0.03030303  0.03030303       0.003
   0.00000000  0.03535354  0.03535354       0.003
   0.00000000  0.04040404  0.04040404       0.003
   0.00000000  0.04545455  0.04545455       0.003
   0.00000000  0.05050505  0.05050505       0.003
   0.00000000  0.05555556  0.05555556       0.003
   0.00000000  0.06060606  0.06060606       0.003
   0.00000000  0.06565657  0.06565657       0.003
   0.00000000  0.07070707  0.07070707       0.003
   0.00000000  0.07575758  0.07575758       0.003
   0.00000000  0.08080808  0.08080808       0.003
   0.00000000  0.08585859  0.08585859       0.003
   0.00000000  0.09090909  0.09090909       0.003
   0.00000000  0.09595960  0.09595960       0.003
   0.00000000  0.10101010  0.10101010       0.003
   0.00000000  0.10606061  0.10606061       0.003
   0.00000000  0.11111111  0.11111111       0.003
   0.00000000  0.11616162  0.11616162       0.003
   0.00000000  0.12121212  0.12121212       0.003
   0.00000000  0.12626263  0.12626263       0.003
   0.00000000  0.13131313  0.13131313       0.003
   0.00000000  0.13636364  0.13636364       0.003
   0.00000000  0.14141414  0.14141414       0.003
   0.00000000  0.14646465  0.14646465       0.003
   0.00000000  0.15151515  0.15151515       0.003
   0.00000000  0.15656566  0.15656566       0.003
   0.00000000  0.16161616  0.16161616       0.003
   0.00000000  0.16666667  0.16666667       0.003
   0.00000000  0.17171717  0.17171717       0.003
   0.00000000  0.17676768  0.17676768       0.003
   0.00000000  0.18181818  0.18181818       0.003
   0.00000000  0.18686869  0.18686869       0.003
   0.00000000  0.19191919  0.19191919       0.003
   0.00000000  0.19696970  0.19696970       0.003
   0.00000000  0.20202020  0.20202020       0.003
   0.00000000  0.20707071  0.20707071       0.003
   0.00000000  0.21212121  0.21212121       0.003
   0.00000000  0.21717172  0.21717172       0.003
   0.00000000  0.22222222  0.22222222       0.003
   0.00000000  0.22727273  0.22727273       0.003
   0.00000000  0.23232323  0.23232323       0.003
   0.00000000  0.23737374  0.23737374       0.003
   0.00000000  0.24242424  0.24242424       0.003
   0.00000000  0.24747475  0.24747475       0.003
   0.00000000  0.25252525  0.25252525       0.003
   0.00000000  0.25757576  0.25757576       0.003
   0.00000000  0.26262626  0.26262626       0.003
   0.00000000  0.26767677  0.26767677       0.003
   0.00000000  0.27272727  0.27272727       0.003
   0.00000000  0.27777778  0.27777778       0.003
   0.00000000  0.28282828  0.28282828       0.003
   0.00000000  0.28787879  0.28787879       0.003
   0.00000000  0.29292929  0.29292929       0.003
   0.00000000  0.29797980  0.29797980       0.003
   0.00000000  0.30303030  0.30303030       0.003
   0.00000000  0.30808081  0.30808081       0.003
   0.00000000  0.31313131  0.31313131       0.003
   0.00000000  0.31818182  0.31818182       0.003
   0.00000000  0.32323232  0.32323232       0.003
   0.00000000  0.32828283  0.32828283       0.003
   0.00000000  0.33333333  0.33333333       0.003
   0.00000000  0.33838384  0.33838384       0.003
   0.00000000  0.34343434  0.34343434       0.003
   0.00000000  0.34848485  0.34848485       0.003
   0.00000000  0.35353535  0.35353535       0.003
   0.00000000  0.35858586  0.35858586       0.003
   0.00000000  0.36363636  0.36363636       0.003
   0.00000000  0.36868687  0.36868687       0.003
   0.00000000  0.37373737  0.37373737       0.003
   0.00000000  0.37878788  0.37878788       0.003
   0.00000000  0.38383838  0.38383838       0.003
   0.00000000  0.38888889  0.38888889       0.003
   0.00000000  0.39393939  0.39393939       0.003
   0.00000000  0.39898990  0.39898990       0.003
   0.00000000  0.40404040  0.40404040       0.003
   0.00000000  0.40909091  0.40909091       0.003
   0.00000000  0.41414141  0.41414141       0.003
   0.00000000  0.41919192  0.41919192       0.003
   0.00000000  0.42424242  0.42424242       0.003
   0.00000000  0.42929293  0.42929293       0.003
   0.00000000  0.43434343  0.43434343       0.003
   0.00000000  0.43939394  0.43939394       0.003
   0.00000000  0.44444444  0.44444444       0.003
   0.00000000  0.44949495  0.44949495       0.003
   0.00000000  0.45454545  0.45454545       0.003
   0.00000000  0.45959596  0.45959596       0.003
   0.00000000  0.46464646  0.46464646       0.003
   0.00000000  0.46969697  0.46969697       0.003
   0.00000000  0.47474747  0.47474747       0.003
   0.00000000  0.47979798  0.47979798       0.003
   0.00000000  0.48484848  0.48484848       0.003
   0.00000000  0.48989899  0.48989899       0.003
   0.00000000  0.49494949  0.49494949       0.003
   0.00000000  0.50000000  0.50000000       0.003
   0.00000000  0.50000000  0.50000000       0.003
   0.00252525  0.50126263  0.50126263       0.003
   0.00505051  0.50252525  0.50252525       0.003
   0.00757576  0.50378788  0.50378788       0.003
   0.01010101  0.50505051  0.50505051       0.003
   0.01262626  0.50631313  0.50631313       0.003
   0.01515152  0.50757576  0.50757576       0.003
   0.01767677  0.50883838  0.50883838       0.003
   0.02020202  0.51010101  0.51010101       0.003
   0.02272727  0.51136364  0.51136364       0.003
   0.02525253  0.51262626  0.51262626       0.003
   0.02777778  0.51388889  0.51388889       0.003
   0.03030303  0.51515152  0.51515152       0.003
   0.03282828  0.51641414  0.51641414       0.003
   0.03535354  0.51767677  0.51767677       0.003
   0.03787879  0.51893939  0.51893939       0.003
   0.04040404  0.52020202  0.52020202       0.003
   0.04292929  0.52146465  0.52146465       0.003
   0.04545455  0.52272727  0.52272727       0.003
   0.04797980  0.52398990  0.52398990       0.003
   0.05050505  0.52525253  0.52525253       0.003
   0.05303030  0.52651515  0.52651515       0.003
   0.05555556  0.52777778  0.52777778       0.003
   0.05808081  0.52904040  0.52904040       0.003
   0.06060606  0.53030303  0.53030303       0.003
   0.06313131  0.53156566  0.53156566       0.003
   0.06565657  0.53282828  0.53282828       0.003
   0.06818182  0.53409091  0.53409091       0.003
   0.07070707  0.53535354  0.53535354       0.003
   0.07323232  0.53661616  0.53661616       0.003
   0.07575758  0.53787879  0.53787879       0.003
   0.07828283  0.53914141  0.53914141       0.003
   0.08080808  0.54040404  0.54040404       0.003
   0.08333333  0.54166667  0.54166667       0.003
   0.08585859  0.54292929  0.54292929       0.003
   0.08838384  0.54419192  0.54419192       0.003
   0.09090909  0.54545455  0.54545455       0.003
   0.09343434  0.54671717  0.54671717       0.003
   0.09595960  0.54797980  0.54797980       0.003
   0.09848485  0.54924242  0.54924242       0.003
   0.10101010  0.55050505  0.55050505       0.003
   0.10353535  0.55176768  0.55176768       0.003
   0.10606061  0.55303030  0.55303030       0.003
   0.10858586  0.55429293  0.55429293       0.003
   0.11111111  0.55555556  0.55555556       0.003
   0.11363636  0.55681818  0.55681818       0.003
   0.11616162  0.55808081  0.55808081       0.003
   0.11868687  0.55934343  0.55934343       0.003
   0.12121212  0.56060606  0.56060606       0.003
   0.12373737  0.56186869  0.56186869       0.003
   0.12626263  0.56313131  0.56313131       0.003
   0.12878788  0.56439394  0.56439394       0.003
   0.13131313  0.56565657  0.56565657       0.003
   0.13383838  0.56691919  0.56691919       0.003
   0.13636364  0.56818182  0.56818182       0.003
   0.13888889  0.56944444  0.56944444       0.003
   0.14141414  0.57070707  0.57070707       0.003
   0.14393939  0.57196970  0.57196970       0.003
   0.14646465  0.57323232  0.57323232       0.003
   0.14898990  0.57449495  0.57449495       0.003
   0.15151515  0.57575758  0.57575758       0.003
   0.15404040  0.57702020  0.57702020       0.003
   0.15656566  0.57828283  0.57828283       0.003
   0.15909091  0.57954545  0.57954545       0.003
   0.16161616  0.58080808  0.58080808       0.003
   0.16414141  0.58207071  0.58207071       0.003
   0.16666667  0.58333333  0.58333333       0.003
   0.16919192  0.58459596  0.58459596       0.003
   0.17171717  0.58585859  0.58585859       0.003
   0.17424242  0.58712121  0.58712121       0.003
   0.17676768  0.58838384  0.58838384       0.003
   0.17929293  0.58964646  0.58964646       0.003
   0.18181818  0.59090909  0.59090909       0.003
   0.18434343  0.59217172  0.59217172       0.003
   0.18686869  0.59343434  0.59343434       0.003
   0.18939394  0.59469697  0.59469697       0.003
   0.19191919  0.59595960  0.59595960       0.003
   0.19444444  0.59722222  0.59722222       0.003
   0.19696970  0.59848485  0.59848485       0.003
   0.19949495  0.59974747  0.59974747       0.003
   0.20202020  0.60101010  0.60101010       0.003
   0.20454545  0.60227273  0.60227273       0.003
   0.20707071  0.60353535  0.60353535       0.003
   0.20959596  0.60479798  0.60479798       0.003
   0.21212121  0.60606061  0.60606061       0.003
   0.21464646  0.60732323  0.60732323       0.003
   0.21717172  0.60858586  0.60858586       0.003
   0.21969697  0.60984848  0.60984848       0.003
   0.22222222  0.61111111  0.61111111       0.003
   0.22474747  0.61237374  0.61237374       0.003
   0.22727273  0.61363636  0.61363636       0.003
   0.22979798  0.61489899  0.61489899       0.003
   0.23232323  0.61616162  0.61616162       0.003
   0.23484848  0.61742424  0.61742424       0.003
   0.23737374  0.61868687  0.61868687       0.003
   0.23989899  0.61994949  0.61994949       0.003
   0.24242424  0.62121212  0.62121212       0.003
   0.24494949  0.62247475  0.62247475       0.003
   0.24747475  0.62373737  0.62373737       0.003
   0.25000000  0.62500000  0.62500000       0.003
   0.37500000  0.75000000  0.37500000       0.003
   0.37121212  0.74242424  0.37121212       0.003
   0.36742424  0.73484848  0.36742424       0.003
   0.36363636  0.72727273  0.36363636       0.003
   0.35984848  0.71969697  0.35984848       0.003
   0.35606061  0.71212121  0.35606061       0.003
   0.35227273  0.70454545  0.35227273       0.003
   0.34848485  0.69696970  0.34848485       0.003
   0.34469697  0.68939394  0.34469697       0.003
   0.34090909  0.68181818  0.34090909       0.003
   0.33712121  0.67424242  0.33712121       0.003
   0.33333333  0.66666667  0.33333333       0.003
   0.32954545  0.65909091  0.32954545       0.003
   0.32575758  0.65151515  0.32575758       0.003
   0.32196970  0.64393939  0.32196970       0.003
   0.31818182  0.63636364  0.31818182       0.003
   0.31439394  0.62878788  0.31439394       0.003
   0.31060606  0.62121212  0.31060606       0.003
   0.30681818  0.61363636  0.30681818       0.003
   0.30303030  0.60606061  0.30303030       0.003
   0.29924242  0.59848485  0.29924242       0.003
   0.29545455  0.59090909  0.29545455       0.003
   0.29166667  0.58333333  0.29166667       0.003
   0.28787879  0.57575758  0.28787879       0.003
   0.28409091  0.56818182  0.28409091       0.003
   0.28030303  0.56060606  0.28030303       0.003
   0.27651515  0.55303030  0.27651515       0.003
   0.27272727  0.54545455  0.27272727       0.003
   0.26893939  0.53787879  0.26893939       0.003
   0.26515152  0.53030303  0.26515152       0.003
   0.26136364  0.52272727  0.26136364       0.003
   0.25757576  0.51515152  0.25757576       0.003
   0.25378788  0.50757576  0.25378788       0.003
   0.25000000  0.50000000  0.25000000       0.003
   0.24621212  0.49242424  0.24621212       0.003
   0.24242424  0.48484848  0.24242424       0.003
   0.23863636  0.47727273  0.23863636       0.003
   0.23484848  0.46969697  0.23484848       0.003
   0.23106061  0.46212121  0.23106061       0.003
   0.22727273  0.45454545  0.22727273       0.003
   0.22348485  0.44696970  0.22348485       0.003
   0.21969697  0.43939394  0.21969697       0.003
   0.21590909  0.43181818  0.21590909       0.003
   0.21212121  0.42424242  0.21212121       0.003
   0.20833333  0.41666667  0.20833333       0.003
   0.20454545  0.40909091  0.20454545       0.003
   0.20075758  0.40151515  0.20075758       0.003
   0.19696970  0.39393939  0.19696970       0.003
   0.19318182  0.38636364  0.19318182       0.003
   0.18939394  0.37878788  0.18939394       0.003
   0.18560606  0.37121212  0.18560606       0.003
   0.18181818  0.36363636  0.18181818       0.003
   0.17803030  0.35606061  0.17803030       0.003
   0.17424242  0.34848485  0.17424242       0.003
   0.17045455  0.34090909  0.17045455       0.003
   0.16666667  0.33333333  0.16666667       0.003
   0.16287879  0.32575758  0.16287879       0.003
   0.15909091  0.31818182  0.15909091       0.003
   0.15530303  0.31060606  0.15530303       0.003
   0.15151515  0.30303030  0.15151515       0.003
   0.14772727  0.29545455  0.14772727       0.003
   0.14393939  0.28787879  0.14393939       0.003
   0.14015152  0.28030303  0.14015152       0.003
   0.13636364  0.27272727  0.13636364       0.003
   0.13257576  0.26515152  0.13257576       0.003
   0.12878788  0.25757576  0.12878788       0.003
   0.12500000  0.25000000  0.12500000       0.003
   0.12121212  0.24242424  0.12121212       0.003
   0.11742424  0.23484848  0.11742424       0.003
   0.11363636  0.22727273  0.11363636       0.003
   0.10984848  0.21969697  0.10984848       0.003
   0.10606061  0.21212121  0.10606061       0.003
   0.10227273  0.20454545  0.10227273       0.003
   0.09848485  0.19696970  0.09848485       0.003
   0.09469697  0.18939394  0.09469697       0.003
   0.09090909  0.18181818  0.09090909       0.003
   0.08712121  0.17424242  0.08712121       0.003
   0.08333333  0.16666667  0.08333333       0.003
   0.07954545  0.15909091  0.07954545       0.003
   0.07575758  0.15151515  0.07575758       0.003
   0.07196970  0.14393939  0.07196970       0.003
   0.06818182  0.13636364  0.06818182       0.003
   0.06439394  0.12878788  0.06439394       0.003
   0.06060606  0.12121212  0.06060606       0.003
   0.05681818  0.11363636  0.05681818       0.003
   0.05303030  0.10606061  0.05303030       0.003
   0.04924242  0.09848485  0.04924242       0.003
   0.04545455  0.09090909  0.04545455       0.003
   0.04166667  0.08333333  0.04166667       0.003
   0.03787879  0.07575758  0.03787879       0.003
   0.03409091  0.06818182  0.03409091       0.003
   0.03030303  0.06060606  0.03030303       0.003
   0.02651515  0.05303030  0.02651515       0.003
   0.02272727  0.04545455  0.02272727       0.003
   0.01893939  0.03787879  0.01893939       0.003
   0.01515152  0.03030303  0.01515152       0.003
   0.01136364  0.02272727  0.01136364       0.003
   0.00757576  0.01515152  0.00757576       0.003
   0.00378788  0.00757576  0.00378788       0.003
   0.00000000  0.00000000  0.00000000       0.003
 
 position of ions in fractional coordinates (direct lattice) 
   0.00000000  0.00000000  0.00000000
 
 position of ions in cartesian coordinates  (Angst):
   0.00000000  0.00000000  0.00000000
 


--------------------------------------------------------------------------------------------------------


 k-point  1 :   0.5000 0.5000 0.5000  plane waves:     120
 k-point  2 :   0.4949 0.4949 0.4949  plane waves:     120
 k-point  3 :   0.4899 0.4899 0.4899  plane waves:     120
 k-point  4 :   0.4848 0.4848 0.4848  plane waves:     120
 k-point  5 :   0.4798 0.4798 0.4798  plane waves:     120
 k-point  6 :   0.4747 0.4747 0.4747  plane waves:     120
 k-point  7 :   0.4697 0.4697 0.4697  plane waves:     120
 k-point  8 :   0.4646 0.4646 0.4646  plane waves:     120
 k-point  9 :   0.4596 0.4596 0.4596  plane waves:     123
 k-point 10 :   0.4545 0.4545 0.4545  plane waves:     123
 k-point 11 :   0.4495 0.4495 0.4495  plane waves:     123
 k-point 12 :   0.4444 0.4444 0.4444  plane waves:     123
 k-point 13 :   0.4394 0.4394 0.4394  plane waves:     123
 k-point 14 :   0.4343 0.4343 0.4343  plane waves:     123
 k-point 15 :   0.4293 0.4293 0.4293  plane waves:     123
 k-point 16 :   0.4242 0.4242 0.4242  plane waves:     123
 k-point 17 :   0.4192 0.4192 0.4192  plane waves:     123
 k-point 18 :   0.4141 0.4141 0.4141  plane waves:     123
 k-point 19 :   0.4091 0.4091 0.4091  plane waves:     123
 k-point 20 :   0.4040 0.4040 0.4040  plane waves:     123
 k-point 21 :   0.3990 0.3990 0.3990  plane waves:     123
 k-point 22 :   0.3939 0.3939 0.3939  plane waves:     123
 k-point 23 :   0.3889 0.3889 0.3889  plane waves:     123
 k-point 24 :   0.3838 0.3838 0.3838  plane waves:     123
 k-point 25 :   0.3788 0.3788 0.3788  plane waves:     123
 k-point 26 :   0.3737 0.3737 0.3737  plane waves:     123
 k-point 27 :   0.3687 0.3687 0.3687  plane waves:     123
 k-point 28 :   0.3636 0.3636 0.3636  plane waves:     123
 k-point 29 :   0.3586 0.3586 0.3586  plane waves:     123
 k-point 30 :   0.3535 0.3535 0.3535  plane waves:     123
 k-point 31 :   0.3485 0.3485 0.3485  plane waves:     126
 k-point 32 :   0.3434 0.3434 0.3434  plane waves:     126
 k-point 33 :   0.3384 0.3384 0.3384  plane waves:     126
 k-point 34 :   0.3333 0.3333 0.3333  plane waves:     126
 k-point 35 :   0.3283 0.3283 0.3283  plane waves:     132
 k-point 36 :   0.3232 0.3232 0.3232  plane waves:     132
 k-point 37 :   0.3182 0.3182 0.3182  plane waves:     132
 k-point 38 :   0.3131 0.3131 0.3131  plane waves:     132
 k-point 39 :   0.3081 0.3081 0.3081  plane waves:     132
 k-point 40 :   0.3030 0.3030 0.3030  plane waves:     132
 k-point 41 :   0.2980 0.2980 0.2980  plane waves:     132
 k-point 42 :   0.2929 0.2929 0.2929  plane waves:     132
 k-point 43 :   0.2879 0.2879 0.2879  plane waves:     132
 k-point 44 :   0.2828 0.2828 0.2828  plane waves:     132
 k-point 45 :   0.2778 0.2778 0.2778  plane waves:     132
 k-point 46 :   0.2727 0.2727 0.2727  plane waves:     132
 k-point 47 :   0.2677 0.2677 0.2677  plane waves:     132
 k-point 48 :   0.2626 0.2626 0.2626  plane waves:     132
 k-point 49 :   0.2576 0.2576 0.2576  plane waves:     132
 k-point 50 :   0.2525 0.2525 0.2525  plane waves:     132
 k-point 51 :   0.2475 0.2475 0.2475  plane waves:     132
 k-point 52 :   0.2424 0.2424 0.2424  plane waves:     132
 k-point 53 :   0.2374 0.2374 0.2374  plane waves:     132
 k-point 54 :   0.2323 0.2323 0.2323  plane waves:     132
 k-point 55 :   0.2273 0.2273 0.2273  plane waves:     132
 k-point 56 :   0.2222 0.2222 0.2222  plane waves:     132
 k-point 57 :   0.2172 0.2172 0.2172  plane waves:     132
 k-point 58 :   0.2121 0.2121 0.2121  plane waves:     132
 k-point 59 :   0.2071 0.2071 0.2071  plane waves:     132
 k-point 60 :   0.2020 0.2020 0.2020  plane waves:     129
 k-point 61 :   0.1970 0.1970 0.1970  plane waves:     129
 k-point 62 :   0.1919 0.1919 0.1919  plane waves:     129
 k-point 63 :   0.1869 0.1869 0.1869  plane waves:     129
 k-point 64 :   0.1818 0.1818 0.1818  plane waves:     129
 k-point 65 :   0.1768 0.1768 0.1768  plane waves:     129
 k-point 66 :   0.1717 0.1717 0.1717  plane waves:     129
 k-point 67 :   0.1667 0.1667 0.1667  plane waves:     129
 k-point 68 :   0.1616 0.1616 0.1616  plane waves:     129
 k-point 69 :   0.1566 0.1566 0.1566  plane waves:     129
 k-point 70 :   0.1515 0.1515 0.1515  plane waves:     128
 k-point 71 :   0.1465 0.1465 0.1465  plane waves:     128
 k-point 72 :   0.1414 0.1414 0.1414  plane waves:     128
 k-point 73 :   0.1364 0.1364 0.1364  plane waves:     128
 k-point 74 :   0.1313 0.1313 0.1313  plane waves:     128
 k-point 75 :   0.1263 0.1263 0.1263  plane waves:     128
 k-point 76 :   0.1212 0.1212 0.1212  plane waves:     128
 k-point 77 :   0.1162 0.1162 0.1162  plane waves:     128
 k-point 78 :   0.1111 0.1111 0.1111  plane waves:     128
 k-point 79 :   0.1061 0.1061 0.1061  plane waves:     128
 k-point 80 :   0.1010 0.1010 0.1010  plane waves:     128
 k-point 81 :   0.0960 0.0960 0.0960  plane waves:     128
 k-point 82 :   0.0909 0.0909 0.0909  plane waves:     128
 k-point 83 :   0.0859 0.0859 0.0859  plane waves:     128
 k-point 84 :   0.0808 0.0808 0.0808  plane waves:     128
 k-point 85 :   0.0758 0.0758 0.0758  plane waves:     128
 k-point 86 :   0.0707 0.0707 0.0707  plane waves:     128
 k-point 87 :   0.0657 0.0657 0.0657  plane waves:     128
 k-point 88 :   0.0606 0.0606 0.0606  plane waves:     128
 k-point 89 :   0.0556 0.0556 0.0556  plane waves:     128
 k-point 90 :   0.0505 0.0505 0.0505  plane waves:     128
 k-point 91 :   0.0455 0.0455 0.0455  plane waves:     128
 k-point 92 :   0.0404 0.0404 0.0404  plane waves:     128
 k-point 93 :   0.0354 0.0354 0.0354  plane waves:     128
 k-point 94 :   0.0303 0.0303 0.0303  plane waves:     134
 k-point 95 :   0.0253 0.0253 0.0253  plane waves:     134
 k-point 96 :   0.0202 0.0202 0.0202  plane waves:     134
 k-point 97 :   0.0152 0.0152 0.0152  plane waves:     137
 k-point 98 :   0.0101 0.0101 0.0101  plane waves:     137
 k-point 99 :   0.0051 0.0051 0.0051  plane waves:     137
 k-point ** :   0.0000 0.0000 0.0000  plane waves:     137
 k-point ** :   0.0000 0.0000 0.0000  plane waves:     137
 k-point ** :   0.0000 0.0051 0.0051  plane waves:     137
 k-point ** :   0.0000 0.0101 0.0101  plane waves:     137
 k-point ** :   0.0000 0.0152 0.0152  plane waves:     137
 k-point ** :   0.0000 0.0202 0.0202  plane waves:     133
 k-point ** :   0.0000 0.0253 0.0253  plane waves:     133
 k-point ** :   0.0000 0.0303 0.0303  plane waves:     133
 k-point ** :   0.0000 0.0354 0.0354  plane waves:     125
 k-point ** :   0.0000 0.0404 0.0404  plane waves:     125
 k-point ** :   0.0000 0.0455 0.0455  plane waves:     125
 k-point ** :   0.0000 0.0505 0.0505  plane waves:     125
 k-point ** :   0.0000 0.0556 0.0556  plane waves:     125
 k-point ** :   0.0000 0.0606 0.0606  plane waves:     125
 k-point ** :   0.0000 0.0657 0.0657  plane waves:     125
 k-point ** :   0.0000 0.0707 0.0707  plane waves:     125
 k-point ** :   0.0000 0.0758 0.0758  plane waves:     125
 k-point ** :   0.0000 0.0808 0.0808  plane waves:     125
 k-point ** :   0.0000 0.0859 0.0859  plane waves:     125
 k-point ** :   0.0000 0.0909 0.0909  plane waves:     125
 k-point ** :   0.0000 0.0960 0.0960  plane waves:     125
 k-point ** :   0.0000 0.1010 0.1010  plane waves:     125
 k-point ** :   0.0000 0.1061 0.1061  plane waves:     125
 k-point ** :   0.0000 0.1111 0.1111  plane waves:     125
 k-point ** :   0.0000 0.1162 0.1162  plane waves:     125
 k-point ** :   0.0000 0.1212 0.1212  plane waves:     125
 k-point ** :   0.0000 0.1263 0.1263  plane waves:     125
 k-point ** :   0.0000 0.1313 0.1313  plane waves:     125
 k-point ** :   0.0000 0.1364 0.1364  plane waves:     125
 k-point ** :   0.0000 0.1414 0.1414  plane waves:     129
 k-point ** :   0.0000 0.1465 0.1465  plane waves:     129
 k-point ** :   0.0000 0.1515 0.1515  plane waves:     129
 k-point ** :   0.0000 0.1566 0.1566  plane waves:     129
 k-point ** :   0.0000 0.1616 0.1616  plane waves:     129
 k-point ** :   0.0000 0.1667 0.1667  plane waves:     129
 k-point ** :   0.0000 0.1717 0.1717  plane waves:     129
 k-point ** :   0.0000 0.1768 0.1768  plane waves:     129
 k-point ** :   0.0000 0.1818 0.1818  plane waves:     129
 k-point ** :   0.0000 0.1869 0.1869  plane waves:     129
 k-point ** :   0.0000 0.1919 0.1919  plane waves:     129
 k-point ** :   0.0000 0.1970 0.1970  plane waves:     129
 k-point ** :   0.0000 0.2020 0.2020  plane waves:     129
 k-point ** :   0.0000 0.2071 0.2071  plane waves:     129
 k-point ** :   0.0000 0.2121 0.2121  plane waves:     129
 k-point ** :   0.0000 0.2172 0.2172  plane waves:     129
 k-point ** :   0.0000 0.2222 0.2222  plane waves:     129
 k-point ** :   0.0000 0.2273 0.2273  plane waves:     129
 k-point ** :   0.0000 0.2323 0.2323  plane waves:     129
 k-point ** :   0.0000 0.2374 0.2374  plane waves:     129
 k-point ** :   0.0000 0.2424 0.2424  plane waves:     129
 k-point ** :   0.0000 0.2475 0.2475  plane waves:     129
 k-point ** :   0.0000 0.2525 0.2525  plane waves:     129
 k-point ** :   0.0000 0.2576 0.2576  plane waves:     129
 k-point ** :   0.0000 0.2626 0.2626  plane waves:     129
 k-point ** :   0.0000 0.2677 0.2677  plane waves:     129
 k-point ** :   0.0000 0.2727 0.2727  plane waves:     129
 k-point ** :   0.0000 0.2778 0.2778  plane waves:     129
 k-point ** :   0.0000 0.2828 0.2828  plane waves:     129
 k-point ** :   0.0000 0.2879 0.2879  plane waves:     129
 k-point ** :   0.0000 0.2929 0.2929  plane waves:     129
 k-point ** :   0.0000 0.2980 0.2980  plane waves:     129
 k-point ** :   0.0000 0.3030 0.3030  plane waves:     129
 k-point ** :   0.0000 0.3081 0.3081  plane waves:     129
 k-point ** :   0.0000 0.3131 0.3131  plane waves:     129
 k-point ** :   0.0000 0.3182 0.3182  plane waves:     129
 k-point ** :   0.0000 0.3232 0.3232  plane waves:     129
 k-point ** :   0.0000 0.3283 0.3283  plane waves:     129
 k-point ** :   0.0000 0.3333 0.3333  plane waves:     129
 k-point ** :   0.0000 0.3384 0.3384  plane waves:     129
 k-point ** :   0.0000 0.3434 0.3434  plane waves:     129
 k-point ** :   0.0000 0.3485 0.3485  plane waves:     129
 k-point ** :   0.0000 0.3535 0.3535  plane waves:     129
 k-point ** :   0.0000 0.3586 0.3586  plane waves:     129
 k-point ** :   0.0000 0.3636 0.3636  plane waves:     129
 k-point ** :   0.0000 0.3687 0.3687  plane waves:     129
 k-point ** :   0.0000 0.3737 0.3737  plane waves:     129
 k-point ** :   0.0000 0.3788 0.3788  plane waves:     129
 k-point ** :   0.0000 0.3838 0.3838  plane waves:     129
 k-point ** :   0.0000 0.3889 0.3889  plane waves:     121
 k-point ** :   0.0000 0.3939 0.3939  plane waves:     121
 k-point ** :   0.0000 0.3990 0.3990  plane waves:     121
 k-point ** :   0.0000 0.4040 0.4040  plane waves:     121
 k-point ** :   0.0000 0.4091 0.4091  plane waves:     121
 k-point ** :   0.0000 0.4141 0.4141  plane waves:     121
 k-point ** :   0.0000 0.4192 0.4192  plane waves:     121
 k-point ** :   0.0000 0.4242 0.4242  plane waves:     121
 k-point ** :   0.0000 0.4293 0.4293  plane waves:     121
 k-point ** :   0.0000 0.4343 0.4343  plane waves:     121
 k-point ** :   0.0000 0.4394 0.4394  plane waves:     117
 k-point ** :   0.0000 0.4444 0.4444  plane waves:     117
 k-point ** :   0.0000 0.4495 0.4495  plane waves:     117
 k-point ** :   0.0000 0.4545 0.4545  plane waves:     117
 k-point ** :   0.0000 0.4596 0.4596  plane waves:     117
 k-point ** :   0.0000 0.4646 0.4646  plane waves:     116
 k-point ** :   0.0000 0.4697 0.4697  plane waves:     116
 k-point ** :   0.0000 0.4747 0.4747  plane waves:     116
 k-point ** :   0.0000 0.4798 0.4798  plane waves:     116
 k-point ** :   0.0000 0.4848 0.4848  plane waves:     116
 k-point ** :   0.0000 0.4899 0.4899  plane waves:     116
 k-point ** :   0.0000 0.4949 0.4949  plane waves:     116
 k-point ** :   0.0000 0.5000 0.5000  plane waves:     116
 k-point ** :   0.0000 0.5000 0.5000  plane waves:     116
 k-point ** :   0.0025 0.5013 0.5013  plane waves:     116
 k-point ** :   0.0051 0.5025 0.5025  plane waves:     116
 k-point ** :   0.0076 0.5038 0.5038  plane waves:     116
 k-point ** :   0.0101 0.5051 0.5051  plane waves:     116
 k-point ** :   0.0126 0.5063 0.5063  plane waves:     116
 k-point ** :   0.0152 0.5076 0.5076  plane waves:     116
 k-point ** :   0.0177 0.5088 0.5088  plane waves:     116
 k-point ** :   0.0202 0.5101 0.5101  plane waves:     116
 k-point ** :   0.0227 0.5114 0.5114  plane waves:     116
 k-point ** :   0.0253 0.5126 0.5126  plane waves:     116
 k-point ** :   0.0278 0.5139 0.5139  plane waves:     116
 k-point ** :   0.0303 0.5152 0.5152  plane waves:     116
 k-point ** :   0.0328 0.5164 0.5164  plane waves:     116
 k-point ** :   0.0354 0.5177 0.5177  plane waves:     116
 k-point ** :   0.0379 0.5189 0.5189  plane waves:     116
 k-point ** :   0.0404 0.5202 0.5202  plane waves:     116
 k-point ** :   0.0429 0.5215 0.5215  plane waves:     116
 k-point ** :   0.0455 0.5227 0.5227  plane waves:     116
 k-point ** :   0.0480 0.5240 0.5240  plane waves:     116
 k-point ** :   0.0505 0.5253 0.5253  plane waves:     116
 k-point ** :   0.0530 0.5265 0.5265  plane waves:     116
 k-point ** :   0.0556 0.5278 0.5278  plane waves:     116
 k-point ** :   0.0581 0.5290 0.5290  plane waves:     116
 k-point ** :   0.0606 0.5303 0.5303  plane waves:     116
 k-point ** :   0.0631 0.5316 0.5316  plane waves:     116
 k-point ** :   0.0657 0.5328 0.5328  plane waves:     116
 k-point ** :   0.0682 0.5341 0.5341  plane waves:     116
 k-point ** :   0.0707 0.5354 0.5354  plane waves:     116
 k-point ** :   0.0732 0.5366 0.5366  plane waves:     116
 k-point ** :   0.0758 0.5379 0.5379  plane waves:     116
 k-point ** :   0.0783 0.5391 0.5391  plane waves:     116
 k-point ** :   0.0808 0.5404 0.5404  plane waves:     116
 k-point ** :   0.0833 0.5417 0.5417  plane waves:     116
 k-point ** :   0.0859 0.5429 0.5429  plane waves:     116
 k-point ** :   0.0884 0.5442 0.5442  plane waves:     116
 k-point ** :   0.0909 0.5455 0.5455  plane waves:     116
 k-point ** :   0.0934 0.5467 0.5467  plane waves:     116
 k-point ** :   0.0960 0.5480 0.5480  plane waves:     120
 k-point ** :   0.0985 0.5492 0.5492  plane waves:     120
 k-point ** :   0.1010 0.5505 0.5505  plane waves:     120
 k-point ** :   0.1035 0.5518 0.5518  plane waves:     120
 k-point ** :   0.1061 0.5530 0.5530  plane waves:     120
 k-point ** :   0.1086 0.5543 0.5543  plane waves:     120
 k-point ** :   0.1111 0.5556 0.5556  plane waves:     120
 k-point ** :   0.1136 0.5568 0.5568  plane waves:     120
 k-point ** :   0.1162 0.5581 0.5581  plane waves:     120
 k-point ** :   0.1187 0.5593 0.5593  plane waves:     120
 k-point ** :   0.1212 0.5606 0.5606  plane waves:     120
 k-point ** :   0.1237 0.5619 0.5619  plane waves:     120
 k-point ** :   0.1263 0.5631 0.5631  plane waves:     120
 k-point ** :   0.1288 0.5644 0.5644  plane waves:     120
 k-point ** :   0.1313 0.5657 0.5657  plane waves:     120
 k-point ** :   0.1338 0.5669 0.5669  plane waves:     120
 k-point ** :   0.1364 0.5682 0.5682  plane waves:     120
 k-point ** :   0.1389 0.5694 0.5694  plane waves:     120
 k-point ** :   0.1414 0.5707 0.5707  plane waves:     120
 k-point ** :   0.1439 0.5720 0.5720  plane waves:     120
 k-point ** :   0.1465 0.5732 0.5732  plane waves:     120
 k-point ** :   0.1490 0.5745 0.5745  plane waves:     122
 k-point ** :   0.1515 0.5758 0.5758  plane waves:     122
 k-point ** :   0.1540 0.5770 0.5770  plane waves:     122
 k-point ** :   0.1566 0.5783 0.5783  plane waves:     122
 k-point ** :   0.1591 0.5795 0.5795  plane waves:     122
 k-point ** :   0.1616 0.5808 0.5808  plane waves:     122
 k-point ** :   0.1641 0.5821 0.5821  plane waves:     122
 k-point ** :   0.1667 0.5833 0.5833  plane waves:     122
 k-point ** :   0.1692 0.5846 0.5846  plane waves:     122
 k-point ** :   0.1717 0.5859 0.5859  plane waves:     122
 k-point ** :   0.1742 0.5871 0.5871  plane waves:     122
 k-point ** :   0.1768 0.5884 0.5884  plane waves:     122
 k-point ** :   0.1793 0.5896 0.5896  plane waves:     122
 k-point ** :   0.1818 0.5909 0.5909  plane waves:     122
 k-point ** :   0.1843 0.5922 0.5922  plane waves:     120
 k-point ** :   0.1869 0.5934 0.5934  plane waves:     120
 k-point ** :   0.1894 0.5947 0.5947  plane waves:     120
 k-point ** :   0.1919 0.5960 0.5960  plane waves:     120
 k-point ** :   0.1944 0.5972 0.5972  plane waves:     120
 k-point ** :   0.1970 0.5985 0.5985  plane waves:     120
 k-point ** :   0.1995 0.5997 0.5997  plane waves:     120
 k-point ** :   0.2020 0.6010 0.6010  plane waves:     120
 k-point ** :   0.2045 0.6023 0.6023  plane waves:     120
 k-point ** :   0.2071 0.6035 0.6035  plane waves:     120
 k-point ** :   0.2096 0.6048 0.6048  plane waves:     120
 k-point ** :   0.2121 0.6061 0.6061  plane waves:     120
 k-point ** :   0.2146 0.6073 0.6073  plane waves:     120
 k-point ** :   0.2172 0.6086 0.6086  plane waves:     120
 k-point ** :   0.2197 0.6098 0.6098  plane waves:     120
 k-point ** :   0.2222 0.6111 0.6111  plane waves:     120
 k-point ** :   0.2247 0.6124 0.6124  plane waves:     120
 k-point ** :   0.2273 0.6136 0.6136  plane waves:     120
 k-point ** :   0.2298 0.6149 0.6149  plane waves:     126
 k-point ** :   0.2323 0.6162 0.6162  plane waves:     126
 k-point ** :   0.2348 0.6174 0.6174  plane waves:     126
 k-point ** :   0.2374 0.6187 0.6187  plane waves:     126
 k-point ** :   0.2399 0.6199 0.6199  plane waves:     126
 k-point ** :   0.2424 0.6212 0.6212  plane waves:     126
 k-point ** :   0.2449 0.6225 0.6225  plane waves:     126
 k-point ** :   0.2475 0.6237 0.6237  plane waves:     126
 k-point ** :   0.2500 0.6250 0.6250  plane waves:     126
 k-point ** :   0.3750 0.7500 0.3750  plane waves:     126
 k-point ** :   0.3712 0.7424 0.3712  plane waves:     126
 k-point ** :   0.3674 0.7348 0.3674  plane waves:     122
 k-point ** :   0.3636 0.7273 0.3636  plane waves:     122
 k-point ** :   0.3598 0.7197 0.3598  plane waves:     122
 k-point ** :   0.3561 0.7121 0.3561  plane waves:     122
 k-point ** :   0.3523 0.7045 0.3523  plane waves:     122
 k-point ** :   0.3485 0.6970 0.3485  plane waves:     122
 k-point ** :   0.3447 0.6894 0.3447  plane waves:     122
 k-point ** :   0.3409 0.6818 0.3409  plane waves:     122
 k-point ** :   0.3371 0.6742 0.3371  plane waves:     122
 k-point ** :   0.3333 0.6667 0.3333  plane waves:     122
 k-point ** :   0.3295 0.6591 0.3295  plane waves:     122
 k-point ** :   0.3258 0.6515 0.3258  plane waves:     122
 k-point ** :   0.3220 0.6439 0.3220  plane waves:     122
 k-point ** :   0.3182 0.6364 0.3182  plane waves:     122
 k-point ** :   0.3144 0.6288 0.3144  plane waves:     122
 k-point ** :   0.3106 0.6212 0.3106  plane waves:     122
 k-point ** :   0.3068 0.6136 0.3068  plane waves:     122
 k-point ** :   0.3030 0.6061 0.3030  plane waves:     122
 k-point ** :   0.2992 0.5985 0.2992  plane waves:     122
 k-point ** :   0.2955 0.5909 0.2955  plane waves:     122
 k-point ** :   0.2917 0.5833 0.2917  plane waves:     122
 k-point ** :   0.2879 0.5758 0.2879  plane waves:     126
 k-point ** :   0.2841 0.5682 0.2841  plane waves:     126
 k-point ** :   0.2803 0.5606 0.2803  plane waves:     126
 k-point ** :   0.2765 0.5530 0.2765  plane waves:     126
 k-point ** :   0.2727 0.5455 0.2727  plane waves:     126
 k-point ** :   0.2689 0.5379 0.2689  plane waves:     126
[...]
      6      23.8403      0.00000

 k-point   357 :       0.1629    0.3258    0.1629
  band No.  band energies     occupation 
      1      -2.3615      2.00000
      2      12.7389      2.00000
      3      13.3923      0.00000
      4      19.7753      0.00000
      5      23.2372      0.00000
      6      23.7489      0.00000

 k-point   358 :       0.1591    0.3182    0.1591
  band No.  band energies     occupation 
      1      -2.4538      2.00000
      2      12.9192      0.00000
      3      13.5605      0.00000
      4      19.8761      0.00000
      5      23.3820      0.00000
      6      23.6596      0.00000

 k-point   359 :       0.1553    0.3106    0.1553
  band No.  band energies     occupation 
      1      -2.5439      2.00000
      2      13.1013      0.00000
      3      13.7299      0.00000
      4      19.9724      0.00000
      5      23.5258      0.00000
      6      23.5724      0.00000

 k-point   360 :       0.1515    0.3030    0.1515
  band No.  band energies     occupation 
      1      -2.6319      2.00000
      2      13.2851      0.00000
      3      13.9005      0.00000
      4      20.0639      0.00000
      5      23.4872      0.00000
      6      23.6668      0.00000

 k-point   361 :       0.1477    0.2955    0.1477
  band No.  band energies     occupation 
      1      -2.7177      2.00000
      2      13.4706      0.00000
      3      14.0722      0.00000
      4      20.1502      0.00000
      5      23.4040      0.00000
      6      23.8043      0.00000

 k-point   362 :       0.1439    0.2879    0.1439
  band No.  band energies     occupation 
      1      -2.8014      2.00000
      2      13.6577      0.00000
      3      14.2452      0.00000
      4      20.2309      0.00000
      5      23.3230      0.00000
      6      23.9393      0.00000

 k-point   363 :       0.1402    0.2803    0.1402
  band No.  band energies     occupation 
      1      -2.8830      2.00000
      2      13.8465      0.00000
      3      14.4192      0.00000
      4      20.3058      0.00000
      5      23.2439      0.00000
      6      24.2841      0.00000

 k-point   364 :       0.1364    0.2727    0.1364
  band No.  band energies     occupation 
      1      -2.9624      2.00000
      2      14.0369      0.00000
      3      14.5943      0.00000
      4      20.3747      0.00000
      5      23.1670      0.00000
      6      24.2156      0.00000

 k-point   365 :       0.1326    0.2652    0.1326
  band No.  band energies     occupation 
      1      -3.0397      2.00000
      2      14.2289      0.00000
      3      14.7704      0.00000
      4      20.4374      0.00000
      5      23.0921      0.00000
      6      24.1446      0.00000

 k-point   366 :       0.1288    0.2576    0.1288
  band No.  band energies     occupation 
      1      -3.1148      2.00000
      2      14.4223      0.00000
      3      14.9475      0.00000
      4      20.4938      0.00000
      5      23.0193      0.00000
      6      24.0749      0.00000

 k-point   367 :       0.1250    0.2500    0.1250
  band No.  band energies     occupation 
      1      -3.1878      2.00000
      2      14.6173      0.00000
      3      15.1256      0.00000
      4      20.5441      0.00000
      5      22.9486      0.00000
      6      24.0066      0.00000

 k-point   368 :       0.1212    0.2424    0.1212
  band No.  band energies     occupation 
      1      -3.2587      2.00000
      2      14.8137      0.00000
      3      15.3045      0.00000
      4      20.5884      0.00000
      5      22.8800      0.00000
      6      23.9395      0.00000

 k-point   369 :       0.1174    0.2348    0.1174
  band No.  band energies     occupation 
      1      -3.3273      2.00000
      2      15.0218      0.00000
      3      15.4878      0.00000
      4      20.6287      0.00000
      5      22.8150      0.00000
      6      23.8848      0.00000

 k-point   370 :       0.1136    0.2273    0.1136
  band No.  band energies     occupation 
      1      -3.3938      2.00000
      2      15.2209      0.00000
      3      15.6685      0.00000
      4      20.6614      0.00000
      5      22.7505      0.00000
      6      23.8199      0.00000

 k-point   371 :       0.1098    0.2197    0.1098
  band No.  band energies     occupation 
      1      -3.4582      2.00000
      2      15.4214      0.00000
      3      15.8500      0.00000
      4      20.6890      0.00000
      5      22.6881      0.00000
      6      23.7561      0.00000

 k-point   372 :       0.1061    0.2121    0.1061
  band No.  band energies     occupation 
      1      -3.5204      2.00000
      2      15.6230      0.00000
      3      16.0322      0.00000
      4      20.7119      0.00000
      5      22.6278      0.00000
      6      23.6933      0.00000

 k-point   373 :       0.1023    0.2045    0.1023
  band No.  band energies     occupation 
      1      -3.5804      2.00000
      2      15.8258      0.00000
      3      16.2150      0.00000
      4      20.7305      0.00000
      5      22.5696      0.00000
      6      23.6315      0.00000

 k-point   374 :       0.0985    0.1970    0.0985
  band No.  band energies     occupation 
      1      -3.6383      2.00000
      2      16.0296      0.00000
      3      16.3984      0.00000
      4      20.7452      0.00000
      5      22.5135      0.00000
      6      23.5704      0.00000

 k-point   375 :       0.0947    0.1894    0.0947
  band No.  band energies     occupation 
      1      -3.6940      2.00000
      2      16.2343      0.00000
      3      16.5823      0.00000
      4      20.7564      0.00000
      5      22.4595      0.00000
      6      23.5101      0.00000

 k-point   376 :       0.0909    0.1818    0.0909
  band No.  band energies     occupation 
      1      -3.7475      2.00000
      2      16.4400      0.00000
      3      16.7667      0.00000
      4      20.7645      0.00000
      5      22.4076      0.00000
      6      23.4504      0.00000

 k-point   377 :       0.0871    0.1742    0.0871
  band No.  band energies     occupation 
      1      -3.7989      2.00000
      2      16.6463      0.00000
      3      16.9515      0.00000
      4      20.7699      0.00000
      5      22.3579      0.00000
      6      23.3911      0.00000

 k-point   378 :       0.0833    0.1667    0.0833
  band No.  band energies     occupation 
      1      -3.8481      2.00000
      2      16.8533      0.00000
      3      17.1366      0.00000
      4      20.7730      0.00000
      5      22.3102      0.00000
      6      23.3321      0.00000

 k-point   379 :       0.0795    0.1591    0.0795
  band No.  band energies     occupation 
      1      -3.8951      2.00000
      2      17.0608      0.00000
      3      17.3220      0.00000
      4      20.7741      0.00000
      5      22.2646      0.00000
      6      23.2732      0.00000

 k-point   380 :       0.0758    0.1515    0.0758
  band No.  band energies     occupation 
      1      -3.9400      2.00000
      2      17.2685      0.00000
      3      17.5075      0.00000
      4      20.7735      0.00000
      5      22.2212      0.00000
      6      23.2141      0.00000

 k-point   381 :       0.0720    0.1439    0.0720
  band No.  band energies     occupation 
      1      -3.9826      2.00000
      2      17.4765      0.00000
      3      17.6930      0.00000
      4      20.7715      0.00000
      5      22.1798      0.00000
      6      23.1548      0.00000

 k-point   382 :       0.0682    0.1364    0.0682
  band No.  band energies     occupation 
      1      -4.0231      2.00000
      2      17.6844      0.00000
      3      17.8785      0.00000
      4      20.7683      0.00000
      5      22.1406      0.00000
      6      23.0949      0.00000

 k-point   383 :       0.0644    0.1288    0.0644
  band No.  band energies     occupation 
      1      -4.0614      2.00000
      2      17.8920      0.00000
      3      18.0638      0.00000
      4      20.7643      0.00000
      5      22.1035      0.00000
      6      23.0341      0.00000

 k-point   384 :       0.0606    0.1212    0.0606
  band No.  band energies     occupation 
      1      -4.0976      2.00000
      2      18.0991      0.00000
      3      18.2488      0.00000
      4      20.7595      0.00000
      5      22.0685      0.00000
      6      22.9721      0.00000

 k-point   385 :       0.0568    0.1136    0.0568
  band No.  band energies     occupation 
      1      -4.1315      2.00000
      2      18.3054      0.00000
      3      18.4334      0.00000
      4      20.7543      0.00000
      5      22.0357      0.00000
      6      22.9086      0.00000

 k-point   386 :       0.0530    0.1061    0.0530
  band No.  band energies     occupation 
      1      -4.1632      2.00000
      2      18.5105      0.00000
      3      18.6174      0.00000
      4      20.7487      0.00000
      5      22.0049      0.00000
      6      22.8433      0.00000

 k-point   387 :       0.0492    0.0985    0.0492
  band No.  band energies     occupation 
      1      -4.1928      2.00000
      2      18.7141      0.00000
      3      18.8006      0.00000
      4      20.7430      0.00000
      5      21.9763      0.00000
      6      22.7757      0.00000

 k-point   388 :       0.0455    0.0909    0.0455
  band No.  band energies     occupation 
      1      -4.2202      2.00000
      2      18.9158      0.00000
      3      18.9828      0.00000
      4      20.7372      0.00000
      5      21.9498      0.00000
      6      22.7056      0.00000

 k-point   389 :       0.0417    0.0833    0.0417
  band No.  band energies     occupation 
      1      -4.2454      2.00000
      2      19.1149      0.00000
      3      19.1637      0.00000
      4      20.7314      0.00000
      5      21.9255      0.00000
      6      22.6325      0.00000

 k-point   390 :       0.0379    0.0758    0.0379
  band No.  band energies     occupation 
      1      -4.2684      2.00000
      2      19.3110      0.00000
      3      19.3430      0.00000
      4      20.7259      0.00000
      5      21.9032      0.00000
      6      22.5562      0.00000

 k-point   391 :       0.0341    0.0682    0.0341
  band No.  band energies     occupation 
      1      -4.2892      2.00000
      2      19.5031      0.00000
      3      19.5202      0.00000
      4      20.7206      0.00000
      5      21.8831      0.00000
      6      22.4765      0.00000

 k-point   392 :       0.0303    0.0606    0.0303
  band No.  band energies     occupation 
      1      -4.3080      2.00000
      2      19.6902      0.00000
      3      19.6908      0.00000
      4      20.7150      0.00000
      5      21.8411      0.00000
      6      22.3897      0.00000

 k-point   393 :       0.0265    0.0530    0.0265
  band No.  band energies     occupation 
      1      -4.3244      2.00000
      2      19.8618      0.00000
      3      19.8715      0.00000
      4      20.7105      0.00000
      5      21.8251      0.00000
      6      22.3034      0.00000

 k-point   394 :       0.0227    0.0455    0.0227
  band No.  band energies     occupation 
      1      -4.3387      2.00000
      2      20.0282      0.00000
      3      20.0451      0.00000
      4      20.7065      0.00000
      5      21.8113      0.00000
      6      22.2147      0.00000

 k-point   395 :       0.0189    0.0379    0.0189
  band No.  band energies     occupation 
      1      -4.3507      2.00000
      2      20.1881      0.00000
      3      20.2087      0.00000
      4      20.7030      0.00000
      5      21.7996      0.00000
      6      22.1249      0.00000

 k-point   396 :       0.0152    0.0303    0.0152
  band No.  band energies     occupation 
      1      -4.3607      2.00000
      2      20.3384      0.00000
      3      20.3570      0.00000
      4      20.7001      0.00000
      5      21.7901      0.00000
      6      22.0202      0.00000

 k-point   397 :       0.0114    0.0227    0.0114
  band No.  band energies     occupation 
      1      -4.3683      2.00000
      2      20.4743      0.00000
      3      20.4898      0.00000
      4      20.6978      0.00000
      5      21.7827      0.00000
      6      21.9360      0.00000

 k-point   398 :       0.0076    0.0152    0.0076
  band No.  band energies     occupation 
      1      -4.3739      2.00000
      2      20.5876      0.00000
      3      20.5967      0.00000
      4      20.6962      0.00000
      5      21.7752      0.00000
      6      21.8412      0.00000

 k-point   399 :       0.0038    0.0076    0.0038
  band No.  band energies     occupation 
      1      -4.3772      2.00000
      2      20.6661      0.00000
      3      20.6690      0.00000
      4      20.6952      0.00000
      5      21.7720      0.00000
      6      21.7897      0.00000

 k-point   400 :       0.0000    0.0000    0.0000
  band No.  band energies     occupation 
      1      -4.3783      2.00000
      2      20.6946      0.00000
      3      20.6948      0.00000
      4      20.6948      0.00000
      5      21.7709      0.00000
      6      21.7710      0.00000


--------------------------------------------------------------------------------------------------------


 soft charge-density along one line, spin component           1
         0         1         2         3         4         5         6         7         8         9
 total charge-density along one line
 
 pseudopotential strength for first ion, spin component:           1
 18.007  25.121   0.000  -0.000   0.000   0.000  -0.000   0.000
 25.121  35.050   0.000  -0.000   0.000   0.000  -0.000   0.000
  0.000   0.000   4.102  -0.000  -0.000   7.641  -0.000  -0.000
 -0.000  -0.000  -0.000   4.102  -0.000  -0.000   7.641  -0.000
  0.000   0.000  -0.000  -0.000   4.102  -0.000  -0.000   7.641
  0.000   0.000   7.641  -0.000  -0.000  14.246  -0.000  -0.000
 -0.000  -0.000  -0.000   7.641  -0.000  -0.000  14.246  -0.000
  0.000   0.000  -0.000  -0.000   7.641  -0.000  -0.000  14.246
 total augmentation occupancy for first ion, spin component:           1
  2.000   0.000   0.000   0.000   0.000   0.000   0.000   0.000
  0.000   0.000   0.000   0.000   0.000   0.000   0.000   0.000
  0.000   0.000   0.667   0.000   0.000   0.000   0.000   0.000
  0.000   0.000   0.000   0.667   0.000   0.000   0.000   0.000
  0.000   0.000   0.000   0.000   0.667   0.000   0.000   0.000
  0.000   0.000   0.000   0.000   0.000   0.000   0.000   0.000
  0.000   0.000   0.000   0.000   0.000   0.000   0.000   0.000
  0.000   0.000   0.000   0.000   0.000   0.000   0.000   0.000


------------------------ aborting loop because EDIFF is reached ----------------------------------------


 


 total charge     
 
# of ion     s       p       d       tot
----------------------------------------
  1        0.887   0.668   0.000   1.555
 
    CHARGE:  cpu time    0.0140: real time    0.0140
    FORLOC:  cpu time    0.0000: real time    0.0003
    FORNL :  cpu time    0.0370: real time    0.0367
    STRESS:  cpu time    0.2340: real time    0.2348
    FORCOR:  cpu time    0.0060: real time    0.0056
    FORHAR:  cpu time    0.0010: real time    0.0011
    OFIELD:  cpu time    0.0000: real time    0.0001

  FORCE on cell =-STRESS in cart. coord.  units (eV):
  Direction    XX          YY          ZZ          XY          YZ          ZX
  --------------------------------------------------------------------------------------
  Alpha Z     2.26997     2.26997     2.26997
  Ewald     -45.14259   -45.14259   -45.14259    -0.00000     0.00000    -0.00000
  Hartree     0.16411     0.16411     0.16411    -0.00000    -0.00000    -0.00000
  E(xc)     -12.64793   -12.64793   -12.64793     0.00000     0.00000     0.00000
  Local      -5.40134    -5.40135    -5.40134     0.00003     0.00003     0.00003
  n-local    39.64374    40.19750    36.85758    -0.06002    -0.43056    -0.23237
  augment    -6.40509    -6.40509    -6.40509    -0.00005    -0.00005    -0.00005
  Kinetic    25.23308    18.53813    40.24258    10.94851     7.80202     3.39850
  Fock        0.00000     0.00000     0.00000     0.00000     0.00000     0.00000
  -------------------------------------------------------------------------------------
  Total      -0.25867    -0.25867    -0.25867    -0.00000     0.00000     0.00000
  in kB     -27.94637   -27.94637   -27.94637    -0.00000     0.00000     0.00000
  external pressure =      -27.95 kB  Pullay stress =        0.00 kB


 VOLUME and BASIS-vectors are now :
 -----------------------------------------------------------------------------
  energy-cutoff  :      240.00
  volume of cell :       14.83
      direct lattice vectors                 reciprocal lattice vectors
     1.950000000  1.950000000  0.000000000     0.256410256  0.256410256 -0.256410256
     0.000000000  1.950000000  1.950000000    -0.256410256  0.256410256  0.256410256
     1.950000000  0.000000000  1.950000000     0.256410256 -0.256410256  0.256410256

  length of vectors
     2.757716447  2.757716447  2.757716447     0.444115592  0.444115592  0.444115592


 FORCES acting on ions
    electron-ion (+dipol)            ewald-force                    non-local-force                 convergence-correction
 -----------------------------------------------------------------------------------------------
   0.336E-15 -.271E-15 0.713E-15   0.262E-15 0.141E-15 0.191E-15   0.529E-22 0.159E-21 0.159E-21   -.131E-16 -.195E-16 0.369E-16
 -----------------------------------------------------------------------------------------------
   0.336E-15 -.271E-15 0.713E-15   0.262E-15 0.141E-15 0.191E-15   0.529E-22 0.159E-21 0.159E-21   -.131E-16 -.195E-16 0.369E-16
 
 
 POSITION                                       TOTAL-FORCE (eV/Angst)
 -----------------------------------------------------------------------------------
      0.00000      0.00000      0.00000         0.000000      0.000000     -0.000000
 -----------------------------------------------------------------------------------
    total drift:                                0.000000     -0.000000      0.000000


--------------------------------------------------------------------------------------------------------



  FREE ENERGIE OF THE ION-ELECTRON SYSTEM (eV)
  ---------------------------------------------------
  free  energy   TOTEN  =        -5.25586835 eV

  energy  without entropy=       -5.25586379  energy(sigma->0) =       -5.25586607
 


--------------------------------------------------------------------------------------------------------


    POTLOK:  cpu time    0.0070: real time    0.0073


--------------------------------------------------------------------------------------------------------


 writing wavefunctions
     LOOP+:  cpu time    2.2677: real time    2.2692
    4ORBIT:  cpu time    0.0000: real time    0.0000
 


 total charge     
 
# of ion     s       p       d       tot
----------------------------------------
  1        0.887   0.668   0.000   1.555
 

 total amount of memory used by VASP on root node    39827. kBytes
========================================================================

   base      :      30000. kBytes
   nonl-proj :       3509. kBytes
   fftplans  :        296. kBytes
   grid      :        451. kBytes
   one-center:          3. kBytes
   wavefun   :       5568. kBytes
 
  
  
 General timing and accounting informations for this job:
 ========================================================
  
                  Total CPU time used (sec):        2.681
                            User time (sec):        2.554
                          System time (sec):        0.127
                         Elapsed time (sec):        2.670
  
                   Maximum memory used (kb):       55508.
                   Average memory used (kb):           0.
  
                          Minor page faults:         7131
                          Major page faults:            0
                 Voluntary context switches:            1
