PROCAR lm decomposed
# of k-points:  400         # of bands:   6         # of ions:   1

 k-point    1 :    0.50000000 0.50000000 0.50000000     weight = 0.00250000

band   1 # energy    2.31304751 # occ.  2.00000000
 
ion      s     py     pz     px    dxy    dyz    dz2    dxz    dx2    tot
  1  0.454  0.000  0.000  0.000  0.000  0.000  0.000  0.000  0.000  0.454
 
band   2 # energy    3.05694493 # occ.  2.00000000
 
ion      s     py     pz     px    dxy    dyz    dz2    dxz    dx2    tot
  1  0.000  0.106  0.106  0.106  0.000  0.000  0.000  0.000  0.000  0.317
 
band   3 # energy   18.18956018 # occ.  0.00000000
 
ion      s     py     pz     px    dxy    dyz    dz2    dxz    dx2    tot
  1  0.000  0.413  0.103  0.103  0.000  0.000  0.000  0.000  0.000  0.620
 
band   4 # energy   18.18956023 # occ.  0.00000000
 
ion      s     py     pz     px    dxy    dyz    dz2    dxz    dx2    tot
  1  0.000  0.000  0.310  0.310  0.000  0.000  0.000  0.000  0.000  0.620
 
band   5 # energy   20.73389339 # occ.  0.00000000
 
ion      s     py     pz     px    dxy    dyz    dz2    dxz    dx2    tot
  1  0.000  0.000  0.000  0.000  0.000  0.000  0.000  0.000  0.000  0.000
 
band   6 # energy   20.73389350 # occ.  0.00000000
 
ion      s     py     pz     px    dxy    dyz    dz2    dxz    dx2    tot
  1  0.000  0.000  0.000  0.000  0.000  0.000  0.000  0.000  0.000  0.000
 

 k-point    2 :    0.49494949 0.49494949 0.49494949     weight = 0.00250000

band   1 # energy    2.28819269 # occ.  2.00000000
 
ion      s     py     pz     px    dxy    dyz    dz2    dxz    dx2    tot
  1  0.441  0.003  0.003  0.003  0.000  0.000  0.000  0.000  0.000  0.450
 
band   2 # energy    3.08311052 # occ.  2.00000000
 
ion      s     py     pz     px    dxy    dyz    dz2    dxz    dx2    tot
  1  0.014  0.103  0.103  0.103  0.000  0.000  0.000  0.000  0.000  0.321
 
band   3 # energy   18.18945664 # occ.  0.00000000
 
ion      s     py     pz     px    dxy    dyz    dz2    dxz    dx2    tot
  1  0.000  0.413  0.105  0.102  0.000  0.000  0.000  0.000  0.000  0.620
 
band   4 # energy   18.18945669 # occ.  0.00000000
 
ion      s     py     pz     px    dxy    dyz    dz2    dxz    dx2    tot
  1  0.000  0.000  0.308  0.311  0.000  0.000  0.000  0.000  0.000  0.620
 
band   5 # energy   20.73523250 # occ.  0.00000000
 
ion      s     py     pz     px    dxy    dyz    dz2    dxz    dx2    tot
  1  0.000  0.000  0.000  0.000  0.000  0.000  0.000  0.000  0.000  0.000
 
band   6 # energy   20.73523264 # occ.  0.00000000
 
ion      s     py     pz     px    dxy    dyz    dz2    dxz    dx2    tot
  1  0.000  0.000  0.000  0.000  0.000  0.000  0.000  0.000  0.000  0.000
 

 k-point    3 :    0.48989899 0.48989899 0.48989899     weight = 0.00250000

band   1 # energy    2.22194310 # occ.  2.00000000
 
ion      s     py     pz     px    dxy    dyz    dz2    dxz    dx2    tot
  1  0.412  0.010  0.010  0.010  0.000  0.000  0.000  0.000  0.000  0.441
 
band   2 # energy    3.15329843 # occ.  2.00000000
 
ion      s     py     pz     px    dxy    dyz    dz2    dxz    dx2    tot
  1  0.043  0.096  0.096  0.096  0.000  0.000  0.000  0.000  0.000  0.330
 
band   3 # energy   18.18914845 # occ.  0.00000000
 
ion      s     py     pz     px    dxy    dyz    dz2    dxz    dx2    tot
  1  0.000  0.413  0.104  0.103  0.000  0.000  0.000  0.000  0.000  0.619
 
band   4 # energy   18.18914850 # occ.  0.00000000
 
ion      s     py     pz     px    dxy    dyz    dz2    dxz    dx2    tot
  1  0.000  0.000  0.309  0.310  0.000  0.000  0.000  0.000  0.000  0.619
 
band   5 # energy   20.73924707 # occ.  0.00000000
 
ion      s     py     pz     px    dxy    dyz    dz2    dxz    dx2    tot
  1  0.000  0.000  0.000  0.000  0.000  0.000  0.000  0.000  0.000  0.001
 
band   6 # energy   20.73924716 # occ.  0.00000000
 
ion      s     py     pz     px    dxy    dyz    dz2    dxz    dx2    tot
  1  0.000  0.000  0.000  0.000  0.000  0.000  0.000  0.000  0.000  0.001
 

 k-point    4 :    0.48484848 0.48484848 0.48484848     weight = 0.00250000

band   1 # energy    2.12966942 # occ.  2.00000000
 
ion      s     py     pz     px    dxy    dyz    dz2    dxz    dx2    tot
  1  0.383  0.016  0.016  0.016  0.000  0.000  0.000  0.000  0.000  0.432
 
band   2 # energy    3.25214221 # occ.  2.00000000
 
ion      s     py     pz     px    dxy    dyz    dz2    dxz    dx2    tot
  1  0.071  0.090  0.090  0.090  0.000  0.000  0.000  0.000  0.000  0.339
 
band   3 # energy   18.18864319 # occ.  0.00000000
 
ion      s     py     pz     px    dxy    dyz    dz2    dxz    dx2    tot
  1  0.000  0.388  0.035  0.195  0.000  0.000  0.000  0.000  0.000  0.618
 
band   4 # energy   18.18864325 # occ.  0.00000000
 
ion      s     py     pz     px    dxy    dyz    dz2    dxz    dx2    tot
  1  0.000  0.024  0.377  0.217  0.000  0.000  0.000  0.000  0.000  0.618
 
band   5 # energy   20.74592855 # occ.  0.00000000
 
ion      s     py     pz     px    dxy    dyz    dz2    dxz    dx2    tot
  1  0.000  0.000  0.000  0.001  0.000  0.000  0.000  0.000  0.000  0.001
 
band   6 # energy   20.74592998 # occ.  0.00000000
 
ion      s     py     pz     px    dxy    dyz    dz2    dxz    dx2    tot
  1  0.000  0.000  0.001  0.000  0.000  0.000  0.000  0.000  0.000  0.001
 

 k-point    5 :    0.47979798 0.47979798 0.47979798     weight = 0.00250000

band   1 # energy    2.02293228 # occ.  2.00000000
 
ion      s     py     pz     px    dxy    dyz    dz2    dxz    dx2    tot
  1  0.361  0.021  0.021  0.021  0.000  0.000  0.000  0.000  0.000  0.424
 
band   2 # energy    3.36808122 # occ.  2.00000000
 
ion      s     py     pz     px    dxy    dyz    dz2    dxz    dx2    tot
  1  0.093  0.085  0.085  0.085  0.000  0.000  0.000  0.000  0.000  0.347
 
band   3 # energy   18.18795379 # occ.  0.00000000
 
ion      s     py     pz     px    dxy    dyz    dz2    dxz    dx2    tot
  1  0.000  0.411  0.101  0.105  0.000  0.000  0.000  0.000  0.000  0.617
 
band   4 # energy   18.18795384 # occ.  0.00000000
 
ion      s     py     pz     px    dxy    dyz    dz2    dxz    dx2    tot
  1  0.000  0.000  0.310  0.307  0.000  0.000  0.000  0.000  0.000  0.617
 
band   5 # energy   20.75526329 # occ.  0.00000000
 
ion      s     py     pz     px    dxy    dyz    dz2    dxz    dx2    tot
  1  0.000  0.001  0.000  0.001  0.000  0.000  0.000  0.000  0.000  0.002
 
band   6 # energy   20.75526376 # occ.  0.00000000
 
ion      s     py     pz     px    dxy    dyz    dz2    dxz    dx2    tot
  1  0.000  0.000  0.001  0.001  0.000  0.000  0.000  0.000  0.000  0.002
 

 k-point    6 :    0.47474747 0.47474747 0.47474747     weight = 0.00250000

band   1 # energy    1.90835763 # occ.  2.00000000
 
ion      s     py     pz     px    dxy    dyz    dz2    dxz    dx2    tot
  1  0.345  0.025  0.025  0.025  0.000  0.000  0.000  0.000  0.000  0.419
 
band   2 # energy    3.49448919 # occ.  2.00000000
 
ion      s     py     pz     px    dxy    dyz    dz2    dxz    dx2    tot
  1  0.109  0.081  0.081  0.081  0.000  0.000  0.000  0.000  0.000  0.352
 
band   3 # energy   18.18709772 # occ.  0.00000000
 
ion      s     py     pz     px    dxy    dyz    dz2    dxz    dx2    tot
  1  0.000  0.409  0.085  0.122  0.000  0.000  0.000  0.000  0.000  0.616
 
band   4 # energy   18.18709776 # occ.  0.00000000
 
ion      s     py     pz     px    dxy    dyz    dz2    dxz    dx2    tot
  1  0.000  0.001  0.326  0.289  0.000  0.000  0.000  0.000  0.000  0.616
 
band   5 # energy   20.76723225 # occ.  0.00000000
 
ion      s     py     pz     px    dxy    dyz    dz2    dxz    dx2    tot
  1  0.000  0.000  0.001  0.002  0.000  0.000  0.000  0.000  0.000  0.004
 
band   6 # energy   20.76723288 # occ.  0.00000000
 
ion      s     py     pz     px    dxy    dyz    dz2    dxz    dx2    tot
  1  0.000  0.002  0.002  0.000  0.000  0.000  0.000  0.000  0.000  0.004
 

 k-point    7 :    0.46969697 0.46969697 0.46969697     weight = 0.00250000

band   1 # energy    1.78954695 # occ.  2.00000000
 
ion      s     py     pz     px    dxy    dyz    dz2    dxz    dx2    tot
  1  0.333  0.027  0.027  0.027  0.000  0.000  0.000  0.000  0.000  0.415
 
band   2 # energy    3.62776418 # occ.  2.00000000
 
ion      s     py     pz     px    dxy    dyz    dz2    dxz    dx2    tot
  1  0.121  0.078  0.078  0.078  0.000  0.000  0.000  0.000  0.000  0.356
 
band   3 # energy   18.18609696 # occ.  0.00000000
 
ion      s     py     pz     px    dxy    dyz    dz2    dxz    dx2    tot
  1  0.000  0.035  0.226  0.353  0.000  0.000  0.000  0.000  0.000  0.614
 
band   4 # energy   18.18609733 # occ.  0.00000000
 
ion      s     py     pz     px    dxy    dyz    dz2    dxz    dx2    tot
  1  0.000  0.374  0.184  0.056  0.000  0.000  0.000  0.000  0.000  0.614
 
band   5 # energy   20.78181211 # occ.  0.00000000
 
ion      s     py     pz     px    dxy    dyz    dz2    dxz    dx2    tot
  1  0.000  0.000  0.002  0.003  0.000  0.000  0.000  0.000  0.000  0.005
 
band   6 # energy   20.78184581 # occ.  0.00000000
 
ion      s     py     pz     px    dxy    dyz    dz2    dxz    dx2    tot
  1  0.000  0.003  0.001  0.000  0.000  0.000  0.000  0.000  0.000  0.005
 

 k-point    8 :    0.46464646 0.46464646 0.46464646     weight = 0.00250000

band   1 # energy    1.66850920 # occ.  2.00000000
 
ion      s     py     pz     px    dxy    dyz    dz2    dxz    dx2    tot
  1  0.324  0.029  0.029  0.029  0.000  0.000  0.000  0.000  0.000  0.411
 
band   2 # energy    3.76589651 # occ.  2.00000000
 
ion      s     py     pz     px    dxy    dyz    dz2    dxz    dx2    tot
  1  0.130  0.077  0.077  0.077  0.000  0.000  0.000  0.000  0.000  0.359
 
band   3 # energy   18.18497706 # occ.  0.00000000
 
ion      s     py     pz     px    dxy    dyz    dz2    dxz    dx2    tot
  1  0.000  0.355  0.209  0.048  0.000  0.000  0.000  0.000  0.000  0.612
 
band   4 # energy   18.18498243 # occ.  0.00000000
 
ion      s     py     pz     px    dxy    dyz    dz2    dxz    dx2    tot
  1  0.000  0.053  0.199  0.360  0.000  0.000  0.000  0.000  0.000  0.612
 
band   5 # energy   20.79897286 # occ.  0.00000000
 
ion      s     py     pz     px    dxy    dyz    dz2    dxz    dx2    tot
  1  0.000  0.004  0.002  0.001  0.000  0.000  0.000  0.000  0.000  0.007
 
band   6 # energy   20.80135954 # occ.  0.00000000
 
ion      s     py     pz     px    dxy    dyz    dz2    dxz    dx2    tot
  1  0.000  0.001  0.002  0.004  0.000  0.000  0.000  0.000  0.000  0.007
 

 k-point    9 :    0.45959596 0.45959596 0.45959596     weight = 0.00250000

band   1 # energy    1.54587708 # occ.  2.00000000
 
ion      s     py     pz     px    dxy    dyz    dz2    dxz    dx2    tot
  1  0.317  0.030  0.030  0.030  0.000  0.000  0.000  0.000  0.000  0.408
 
band   2 # energy    3.90770149 # occ.  2.00000000
 
ion      s     py     pz     px    dxy    dyz    dz2    dxz    dx2    tot
  1  0.136  0.075  0.075  0.075  0.000  0.000  0.000  0.000  0.000  0.362
 
band   3 # energy   18.18365402 # occ.  0.00000000
 
ion      s     py     pz     px    dxy    dyz    dz2    dxz    dx2    tot
  1  0.000  0.407  0.103  0.100  0.000  0.000  0.000  0.000  0.000  0.610
 
band   4 # energy   18.18365406 # occ.  0.00000000
 
ion      s     py     pz     px    dxy    dyz    dz2    dxz    dx2    tot
  1  0.000  0.000  0.304  0.306  0.000  0.000  0.000  0.000  0.000  0.610
 
band   5 # energy   20.81851476 # occ.  0.00000000
 
ion      s     py     pz     px    dxy    dyz    dz2    dxz    dx2    tot
  1  0.000  0.001  0.006  0.003  0.000  0.000  0.000  0.000  0.000  0.009
 
band   6 # energy   20.81851502 # occ.  0.00000000
 
ion      s     py     pz     px    dxy    dyz    dz2    dxz    dx2    tot
  1  0.000  0.005  0.000  0.003  0.000  0.000  0.000  0.000  0.000  0.009
 

 k-point   10 :    0.45454545 0.45454545 0.45454545     weight = 0.00250000

band   1 # energy    1.42346758 # occ.  2.00000000
 
ion      s     py     pz     px    dxy    dyz    dz2    dxz    dx2    tot
  1  0.313  0.031  0.031  0.031  0.000  0.000  0.000  0.000  0.000  0.406
 
band   2 # energy    4.05246926 # occ.  2.00000000
 
ion      s     py     pz     px    dxy    dyz    dz2    dxz    dx2    tot
  1  0.140  0.074  0.074  0.074  0.000  0.000  0.000  0.000  0.000  0.363
 
band   3 # energy   18.18236934 # occ.  0.00000000
 
ion      s     py     pz     px    dxy    dyz    dz2    dxz    dx2    tot
  1  0.000  0.405  0.100  0.103  0.000  0.000  0.000  0.000  0.000  0.608
 
band   4 # energy   18.18236938 # occ.  0.00000000
 
ion      s     py     pz     px    dxy    dyz    dz2    dxz    dx2    tot
  1  0.000  0.000  0.305  0.303  0.000  0.000  0.000  0.000  0.000  0.608
 
band   5 # energy   20.84073856 # occ.  0.00000000
 
ion      s     py     pz     px    dxy    dyz    dz2    dxz    dx2    tot
  1  0.000  0.002  0.002  0.007  0.000  0.000  0.000  0.000  0.000  0.011
 
band   6 # energy   20.84074058 # occ.  0.00000000
 
ion      s     py     pz     px    dxy    dyz    dz2    dxz    dx2    tot
  1  0.000  0.005  0.006  0.000  0.000  0.000  0.000  0.000  0.000  0.011
 

 k-point   11 :    0.44949495 0.44949495 0.44949495     weight = 0.00250000

band   1 # energy    1.30119366 # occ.  2.00000000
 
ion      s     py     pz     px    dxy    dyz    dz2    dxz    dx2    tot
  1  0.309  0.032  0.032  0.032  0.000  0.000  0.000  0.000  0.000  0.404
 
band   2 # energy    4.19972896 # occ.  2.00000000
 
ion      s     py     pz     px    dxy    dyz    dz2    dxz    dx2    tot
  1  0.144  0.074  0.074  0.074  0.000  0.000  0.000  0.000  0.000  0.365
 
band   3 # energy   18.18106332 # occ.  0.00000000
 
ion      s     py     pz     px    dxy    dyz    dz2    dxz    dx2    tot
  1  0.000  0.392  0.159  0.054  0.000  0.000  0.000  0.000  0.000  0.605
 
band   4 # energy   18.18106337 # occ.  0.00000000
 
ion      s     py     pz     px    dxy    dyz    dz2    dxz    dx2    tot
  1  0.000  0.012  0.244  0.349  0.000  0.000  0.000  0.000  0.000  0.605
 
band   5 # energy   20.86543531 # occ.  0.00000000
 
ion      s     py     pz     px    dxy    dyz    dz2    dxz    dx2    tot
  1  0.000  0.005  0.008  0.001  0.000  0.000  0.000  0.000  0.000  0.014
 
band   6 # energy   20.86545820 # occ.  0.00000000
 
ion      s     py     pz     px    dxy    dyz    dz2    dxz    dx2    tot
  1  0.000  0.004  0.001  0.008  0.000  0.000  0.000  0.000  0.000  0.014
 

 k-point   12 :    0.44444444 0.44444444 0.44444444     weight = 0.00250000

band   1 # energy    1.17936626 # occ.  2.00000000
 
ion      s     py     pz     px    dxy    dyz    dz2    dxz    dx2    tot
  1  0.307  0.032  0.032  0.032  0.000  0.000  0.000  0.000  0.000  0.403
 
band   2 # energy    4.34916836 # occ.  2.00000000
 
ion      s     py     pz     px    dxy    dyz    dz2    dxz    dx2    tot
  1  0.146  0.073  0.073  0.073  0.000  0.000  0.000  0.000  0.000  0.366
 
band   3 # energy   18.17977428 # occ.  0.00000000
 
ion      s     py     pz     px    dxy    dyz    dz2    dxz    dx2    tot
  1  0.000  0.401  0.111  0.090  0.000  0.000  0.000  0.000  0.000  0.603
 
band   4 # energy   18.17977433 # occ.  0.00000000
 
ion      s     py     pz     px    dxy    dyz    dz2    dxz    dx2    tot
  1  0.000  0.001  0.291  0.312  0.000  0.000  0.000  0.000  0.000  0.603
 
band   5 # energy   20.89256214 # occ.  0.00000000
 
ion      s     py     pz     px    dxy    dyz    dz2    dxz    dx2    tot
  1  0.000  0.002  0.010  0.004  0.000  0.000  0.000  0.000  0.000  0.016
 
band   6 # energy   20.89256521 # occ.  0.00000000
 
ion      s     py     pz     px    dxy    dyz    dz2    dxz    dx2    tot
  1  0.000  0.008  0.001  0.007  0.000  0.000  0.000  0.000  0.000  0.016
 

 k-point   13 :    0.43939394 0.43939394 0.43939394     weight = 0.00250000

band   1 # energy    1.05820081 # occ.  2.00000000
 
ion      s     py     pz     px    dxy    dyz    dz2    dxz    dx2    tot
  1  0.305  0.032  0.032  0.032  0.000  0.000  0.000  0.000  0.000  0.402
 
band   2 # energy    4.50057063 # occ.  2.00000000
 
ion      s     py     pz     px    dxy    dyz    dz2    dxz    dx2    tot
  1  0.147  0.073  0.073  0.073  0.000  0.000  0.000  0.000  0.000  0.367
 
band   3 # energy   18.17854249 # occ.  0.00000000
 
ion      s     py     pz     px    dxy    dyz    dz2    dxz    dx2    tot
  1  0.000  0.399  0.112  0.088  0.000  0.000  0.000  0.000  0.000  0.600
 
band   4 # energy   18.17854253 # occ.  0.00000000
 
ion      s     py     pz     px    dxy    dyz    dz2    dxz    dx2    tot
  1  0.000  0.000  0.288  0.312  0.000  0.000  0.000  0.000  0.000  0.600
 
band   5 # energy   20.92207392 # occ.  0.00000000
 
ion      s     py     pz     px    dxy    dyz    dz2    dxz    dx2    tot
  1  0.000  0.003  0.013  0.003  0.000  0.000  0.000  0.000  0.000  0.019
 
band   6 # energy   20.92207480 # occ.  0.00000000
 
ion      s     py     pz     px    dxy    dyz    dz2    dxz    dx2    tot
  1  0.000  0.010  0.000  0.009  0.000  0.000  0.000  0.000  0.000  0.019
 

 k-point   14 :    0.43434343 0.43434343 0.43434343     weight = 0.00250000

band   1 # energy    0.93785111 # occ.  2.00000000
 
ion      s     py     pz     px    dxy    dyz    dz2    dxz    dx2    tot
  1  0.304  0.032  0.032  0.032  0.000  0.000  0.000  0.000  0.000  0.401
 
band   2 # energy    4.65378039 # occ.  2.00000000
 
ion      s     py     pz     px    dxy    dyz    dz2    dxz    dx2    tot
  1  0.148  0.073  0.073  0.073  0.000  0.000  0.000  0.000  0.000  0.368
 
band   3 # energy   18.17740960 # occ.  0.00000000
 
ion      s     py     pz     px    dxy    dyz    dz2    dxz    dx2    tot
  1  0.000  0.397  0.090  0.110  0.000  0.000  0.000  0.000  0.000  0.597
 
band   4 # energy   18.17740964 # occ.  0.00000000
 
ion      s     py     pz     px    dxy    dyz    dz2    dxz    dx2    tot
  1  0.000  0.000  0.308  0.288  0.000  0.000  0.000  0.000  0.000  0.597
 
band   5 # energy   20.95392328 # occ.  0.00000000
 
ion      s     py     pz     px    dxy    dyz    dz2    dxz    dx2    tot
  1  0.000  0.006  0.002  0.014  0.000  0.000  0.000  0.000  0.000  0.022
 
band   6 # energy   20.95392341 # occ.  0.00000000
 
ion      s     py     pz     px    dxy    dyz    dz2    dxz    dx2    tot
  1  0.000  0.008  0.013  0.001  0.000  0.000  0.000  0.000  0.000  0.022
 

 k-point   15 :    0.42929293 0.42929293 0.42929293     weight = 0.00250000

band   1 # energy    0.81842984 # occ.  2.00000000
 
ion      s     py     pz     px    dxy    dyz    dz2    dxz    dx2    tot
  1  0.303  0.032  0.032  0.032  0.000  0.000  0.000  0.000  0.000  0.400
 
band   2 # energy    4.80867976 # occ.  2.00000000
 
ion      s     py     pz     px    dxy    dyz    dz2    dxz    dx2    tot
  1  0.149  0.073  0.073  0.073  0.000  0.000  0.000  0.000  0.000  0.368
 
band   3 # energy   18.17641830 # occ.  0.00000000
 
ion      s     py     pz     px    dxy    dyz    dz2    dxz    dx2    tot
  1  0.000  0.396  0.096  0.102  0.000  0.000  0.000  0.000  0.000  0.594
 
band   4 # energy   18.17641834 # occ.  0.00000000
 
ion      s     py     pz     px    dxy    dyz    dz2    dxz    dx2    tot
  1  0.000  0.000  0.299  0.294  0.000  0.000  0.000  0.000  0.000  0.594
 
band   5 # energy   20.98806126 # occ.  0.00000000
 
ion      s     py     pz     px    dxy    dyz    dz2    dxz    dx2    tot
  1  0.000  0.002  0.006  0.016  0.000  0.000  0.000  0.000  0.000  0.025
 
band   6 # energy   20.98806134 # occ.  0.00000000
 
ion      s     py     pz     px    dxy    dyz    dz2    dxz    dx2    tot
  1  0.000  0.014  0.010  0.000  0.000  0.000  0.000  0.000  0.000  0.025
 

 k-point   16 :    0.42424242 0.42424242 0.42424242     weight = 0.00250000

band   1 # energy    0.70001707 # occ.  2.00000000
 
ion      s     py     pz     px    dxy    dyz    dz2    dxz    dx2    tot
  1  0.303  0.032  0.032  0.032  0.000  0.000  0.000  0.000  0.000  0.399
 
band   2 # energy    4.96517983 # occ.  2.00000000
 
ion      s     py     pz     px    dxy    dyz    dz2    dxz    dx2    tot
  1  0.149  0.073  0.073  0.073  0.000  0.000  0.000  0.000  0.000  0.369
 
band   3 # energy   18.17561192 # occ.  0.00000000
 
ion      s     py     pz     px    dxy    dyz    dz2    dxz    dx2    tot
  1  0.000  0.384  0.050  0.157  0.000  0.000  0.000  0.000  0.000  0.590
 
band   4 # energy   18.17561197 # occ.  0.00000000
 
ion      s     py     pz     px    dxy    dyz    dz2    dxz    dx2    tot
  1  0.000  0.010  0.343  0.237  0.000  0.000  0.000  0.000  0.000  0.590
 
band   5 # energy   21.02443779 # occ.  0.00000000
 
ion      s     py     pz     px    dxy    dyz    dz2    dxz    dx2    tot
  1  0.000  0.000  0.014  0.013  0.000  0.000  0.000  0.000  0.000  0.028
 
band   6 # energy   21.02443788 # occ.  0.00000000
 
ion      s     py     pz     px    dxy    dyz    dz2    dxz    dx2    tot
  1  0.000  0.018  0.004  0.005  0.000  0.000  0.000  0.000  0.000  0.028
 

 k-point   17 :    0.41919192 0.41919192 0.41919192     weight = 0.00250000

band   1 # energy    0.58267756 # occ.  2.00000000
 
ion      s     py     pz     px    dxy    dyz    dz2    dxz    dx2    tot
  1  0.303  0.032  0.032  0.032  0.000  0.000  0.000  0.000  0.000  0.399
 
band   2 # energy    5.12321918 # occ.  2.00000000
 
ion      s     py     pz     px    dxy    dyz    dz2    dxz    dx2    tot
  1  0.149  0.073  0.073  0.073  0.000  0.000  0.000  0.000  0.000  0.369
 
band   3 # energy   18.17503339 # occ.  0.00000000
 
ion      s     py     pz     px    dxy    dyz    dz2    dxz    dx2    tot
  1  0.000  0.385  0.059  0.142  0.000  0.000  0.000  0.000  0.000  0.587
 
band   4 # energy   18.17503343 # occ.  0.00000000
 
ion      s     py     pz     px    dxy    dyz    dz2    dxz    dx2    tot
  1  0.000  0.006  0.332  0.249  0.000  0.000  0.000  0.000  0.000  0.587
 
band   5 # energy   21.06300152 # occ.  0.00000000
 
ion      s     py     pz     px    dxy    dyz    dz2    dxz    dx2    tot
  1  0.000  0.001  0.019  0.010  0.000  0.000  0.000  0.000  0.000  0.031
 
band   6 # energy   21.06300167 # occ.  0.00000000
 
ion      s     py     pz     px    dxy    dyz    dz2    dxz    dx2    tot
  1  0.000  0.019  0.001  0.010  0.000  0.000  0.000  0.000  0.000  0.031
 

 k-point   18 :    0.41414141 0.41414141 0.41414141     weight = 0.00250000

band   1 # energy    0.46646706 # occ.  2.00000000
 
ion      s     py     pz     px    dxy    dyz    dz2    dxz    dx2    tot
  1  0.303  0.032  0.032  0.032  0.000  0.000  0.000  0.000  0.000  0.398
 
band   2 # energy    5.28274557 # occ.  2.00000000
 
ion      s     py     pz     px    dxy    dyz    dz2    dxz    dx2    tot
  1  0.148  0.074  0.074  0.074  0.000  0.000  0.000  0.000  0.000  0.369
 
band   3 # energy   18.17472651 # occ.  0.00000000
 
ion      s     py     pz     px    dxy    dyz    dz2    dxz    dx2    tot
  1  0.000  0.388  0.083  0.112  0.000  0.000  0.000  0.000  0.000  0.584
 
band   4 # energy   18.17472655 # occ.  0.00000000
 
ion      s     py     pz     px    dxy    dyz    dz2    dxz    dx2    tot
  1  0.000  0.001  0.306  0.277  0.000  0.000  0.000  0.000  0.000  0.584
 
band   5 # energy   21.10370079 # occ.  0.00000000
 
ion      s     py     pz     px    dxy    dyz    dz2    dxz    dx2    tot
  1  0.000  0.001  0.021  0.011  0.000  0.000  0.000  0.000  0.000  0.034
 
band   6 # energy   21.10370094 # occ.  0.00000000
 
ion      s     py     pz     px    dxy    dyz    dz2    dxz    dx2    tot
  1  0.000  0.021  0.002  0.011  0.000  0.000  0.000  0.000  0.000  0.034
 

 k-point   19 :    0.40909091 0.40909091 0.40909091     weight = 0.00250000

band   1 # energy    0.35142593 # occ.  2.00000000
 
ion      s     py     pz     px    dxy    dyz    dz2    dxz    dx2    tot
  1  0.304  0.031  0.031  0.031  0.000  0.000  0.000  0.000  0.000  0.398
 
band   2 # energy    5.44371659 # occ.  2.00000000
 
ion      s     py     pz     px    dxy    dyz    dz2    dxz    dx2    tot
  1  0.147  0.074  0.074  0.074  0.000  0.000  0.000  0.000  0.000  0.369
 
band   3 # energy   18.17473449 # occ.  0.00000000
 
ion      s     py     pz     px    dxy    dyz    dz2    dxz    dx2    tot
  1  0.000  0.385  0.075  0.120  0.000  0.000  0.000  0.000  0.000  0.580
 
band   4 # energy   18.17473453 # occ.  0.00000000
 
ion      s     py     pz     px    dxy    dyz    dz2    dxz    dx2    tot
  1  0.000  0.002  0.311  0.267  0.000  0.000  0.000  0.000  0.000  0.580
 
band   5 # energy   21.14648348 # occ.  0.00000000
 
ion      s     py     pz     px    dxy    dyz    dz2    dxz    dx2    tot
  1  0.000  0.001  0.021  0.015  0.000  0.000  0.000  0.000  0.000  0.037
 
band   6 # energy   21.14648358 # occ.  0.00000000
 
ion      s     py     pz     px    dxy    dyz    dz2    dxz    dx2    tot
  1  0.000  0.024  0.003  0.010  0.000  0.000  0.000  0.000  0.000  0.037
 

 k-point   20 :    0.40404040 0.40404040 0.40404040     weight = 0.00250000

band   1 # energy    0.23758680 # occ.  2.00000000
 
ion      s     py     pz     px    dxy    dyz    dz2    dxz    dx2    tot
  1  0.305  0.031  0.031  0.031  0.000  0.000  0.000  0.000  0.000  0.397
 
band   2 # energy    5.60609738 # occ.  2.00000000
 
ion      s     py     pz     px    dxy    dyz    dz2    dxz    dx2    tot
  1  0.146  0.074  0.074  0.074  0.000  0.000  0.000  0.000  0.000  0.369
 
band   3 # energy   18.17509968 # occ.  0.00000000
 
ion      s     py     pz     px    dxy    dyz    dz2    dxz    dx2    tot
  1  0.000  0.339  0.011  0.226  0.000  0.000  0.000  0.000  0.000  0.577
 
band   4 # energy   18.17509978 # occ.  0.00000000
 
ion      s     py     pz     px    dxy    dyz    dz2    dxz    dx2    tot
  1  0.000  0.045  0.373  0.158  0.000  0.000  0.000  0.000  0.000  0.577
 
band   5 # energy   21.19129721 # occ.  0.00000000
 
ion      s     py     pz     px    dxy    dyz    dz2    dxz    dx2    tot
  1  0.000  0.020  0.000  0.020  0.000  0.000  0.000  0.000  0.000  0.040
 
band   6 # energy   21.19130419 # occ.  0.00000000
 
ion      s     py     pz     px    dxy    dyz    dz2    dxz    dx2    tot
  1  0.000  0.007  0.027  0.007  0.000  0.000  0.000  0.000  0.000  0.040
 

 k-point   21 :    0.39898990 0.39898990 0.39898990     weight = 0.00250000

band   1 # energy    0.12497638 # occ.  2.00000000
 
ion      s     py     pz     px    dxy    dyz    dz2    dxz    dx2    tot
  1  0.305  0.031  0.031  0.031  0.000  0.000  0.000  0.000  0.000  0.397
 
band   2 # energy    5.76985889 # occ.  2.00000000
 
ion      s     py     pz     px    dxy    dyz    dz2    dxz    dx2    tot
  1  0.145  0.075  0.075  0.075  0.000  0.000  0.000  0.000  0.000  0.369
 
band   3 # energy   18.17586360 # occ.  0.00000000
 
ion      s     py     pz     px    dxy    dyz    dz2    dxz    dx2    tot
  1  0.000  0.341  0.014  0.218  0.000  0.000  0.000  0.000  0.000  0.573
 
band   4 # energy   18.17586369 # occ.  0.00000000
 
ion      s     py     pz     px    dxy    dyz    dz2    dxz    dx2    tot
  1  0.000  0.041  0.368  0.164  0.000  0.000  0.000  0.000  0.000  0.573
 
band   5 # energy   21.23808932 # occ.  0.00000000
 
ion      s     py     pz     px    dxy    dyz    dz2    dxz    dx2    tot
  1  0.000  0.022  0.000  0.022  0.000  0.000  0.000  0.000  0.000  0.044
 
band   6 # energy   21.23809707 # occ.  0.00000000
 
ion      s     py     pz     px    dxy    dyz    dz2    dxz    dx2    tot
  1  0.000  0.007  0.029  0.007  0.000  0.000  0.000  0.000  0.000  0.044
 

 k-point   22 :    0.39393939 0.39393939 0.39393939     weight = 0.00250000

band   1 # energy    0.01361687 # occ.  2.00000000
 
ion      s     py     pz     px    dxy    dyz    dz2    dxz    dx2    tot
  1  0.306  0.030  0.030  0.030  0.000  0.000  0.000  0.000  0.000  0.397
 
band   2 # energy    5.93497617 # occ.  2.00000000
 
ion      s     py     pz     px    dxy    dyz    dz2    dxz    dx2    tot
  1  0.144  0.075  0.075  0.075  0.000  0.000  0.000  0.000  0.000  0.369
 
band   3 # energy   18.17706649 # occ.  0.00000000
 
ion      s     py     pz     px    dxy    dyz    dz2    dxz    dx2    tot
  1  0.000  0.375  0.061  0.134  0.000  0.000  0.000  0.000  0.000  0.570
 
band   4 # energy   18.17706653 # occ.  0.00000000
 
ion      s     py     pz     px    dxy    dyz    dz2    dxz    dx2    tot
  1  0.000  0.005  0.319  0.246  0.000  0.000  0.000  0.000  0.000  0.570
 
band   5 # energy   21.28680742 # occ.  0.00000000
 
ion      s     py     pz     px    dxy    dyz    dz2    dxz    dx2    tot
  1  0.000  0.000  0.024  0.022  0.000  0.000  0.000  0.000  0.000  0.047
 
band   6 # energy   21.28680751 # occ.  0.00000000
 
ion      s     py     pz     px    dxy    dyz    dz2    dxz    dx2    tot
  1  0.000  0.031  0.007  0.009  0.000  0.000  0.000  0.000  0.000  0.047
 

 k-point   23 :    0.38888889 0.38888889 0.38888889     weight = 0.00250000

band   1 # energy   -0.09647330 # occ.  2.00000000
 
ion      s     py     pz     px    dxy    dyz    dz2    dxz    dx2    tot
  1  0.307  0.030  0.030  0.030  0.000  0.000  0.000  0.000  0.000  0.396
 
band   2 # energy    6.10142802 # occ.  2.00000000
 
ion      s     py     pz     px    dxy    dyz    dz2    dxz    dx2    tot
  1  0.143  0.075  0.075  0.075  0.000  0.000  0.000  0.000  0.000  0.369
 
band   3 # energy   18.17874784 # occ.  0.00000000
 
ion      s     py     pz     px    dxy    dyz    dz2    dxz    dx2    tot
  1  0.000  0.303  0.002  0.261  0.000  0.000  0.000  0.000  0.000  0.566
 
band   4 # energy   18.17874806 # occ.  0.00000000
 
ion      s     py     pz     px    dxy    dyz    dz2    dxz    dx2    tot
  1  0.000  0.074  0.376  0.116  0.000  0.000  0.000  0.000  0.000  0.566
 
band   5 # energy   21.33739926 # occ.  0.00000000
 
ion      s     py     pz     px    dxy    dyz    dz2    dxz    dx2    tot
  1  0.000  0.025  0.000  0.025  0.000  0.000  0.000  0.000  0.000  0.050
 
band   6 # energy   21.33740494 # occ.  0.00000000
 
ion      s     py     pz     px    dxy    dyz    dz2    dxz    dx2    tot
  1  0.000  0.009  0.033  0.008  0.000  0.000  0.000  0.000  0.000  0.050
 

 k-point   24 :    0.38383838 0.38383838 0.38383838     weight = 0.00250000
