<?xml version="1.0" encoding="ISO-8859-1"?>
<modeling>
 <generator>
  <i name="program" type="string">vasp </i>
  <i name="version" type="string">5.4.1  </i>
  <i name="subversion" type="string">24Jun15 (build Mar 11 2018 14:54:50) complex                          parallel </i>
  <i name="platform" type="string">IFC91_ompi </i>
  <i name="date" type="string">2020 04 13 </i>
  <i name="time" type="string">08:35:17 </i>
 </generator>
 <incar>
  <i type="string" name="SYSTEM"> fcc Si</i>
  <i type="string" name="PREC">normal</i>
  <i type="int" name="ICHARG">    11</i>
  <i name="ENCUT">    240.00000000</i>
  <i type="int" name="ISMEAR">     0</i>
  <i name="SIGMA">      0.01000000</i>
  <i type="logical" name="LORBIT"> F  </i>
  <v type="int" name="KPOINT_BSE">    -1     0     0     0</v>
 </incar>
 <kpoints>
  <generation param="listgenerated">
   <i name="divisions" type="int">     100 </i>
   <v>       0.50000000       0.50000000       0.50000000 </v>
   <v>       0.00000000       0.00000000       0.00000000 </v>
   <v>       0.00000000       0.50000000       0.50000000 </v>
   <v>       0.37500000       0.75000000       0.37500000 </v>
   <v>       0.00000000       0.00000000       0.00000000 </v>
  </generation>
  <varray name="kpointlist" >
   <v>       0.50000000       0.50000000       0.50000000 </v>
   <v>       0.49494949       0.49494949       0.49494949 </v>
   <v>       0.48989899       0.48989899       0.48989899 </v>
   <v>       0.48484848       0.48484848       0.48484848 </v>
   <v>       0.47979798       0.47979798       0.47979798 </v>
   <v>       0.47474747       0.47474747       0.47474747 </v>
   <v>       0.46969697       0.46969697       0.46969697 </v>
   <v>       0.46464646       0.46464646       0.46464646 </v>
   <v>       0.45959596       0.45959596       0.45959596 </v>
   <v>       0.45454545       0.45454545       0.45454545 </v>
   <v>       0.44949495       0.44949495       0.44949495 </v>
   <v>       0.44444444       0.44444444       0.44444444 </v>
   <v>       0.43939394       0.43939394       0.43939394 </v>
   <v>       0.43434343       0.43434343       0.43434343 </v>
   <v>       0.42929293       0.42929293       0.42929293 </v>
   <v>       0.42424242       0.42424242       0.42424242 </v>
   <v>       0.41919192       0.41919192       0.41919192 </v>
   <v>       0.41414141       0.41414141       0.41414141 </v>
   <v>       0.40909091       0.40909091       0.40909091 </v>
   <v>       0.40404040       0.40404040       0.40404040 </v>
   <v>       0.39898990       0.39898990       0.39898990 </v>
   <v>       0.39393939       0.39393939       0.39393939 </v>
   <v>       0.38888889       0.38888889       0.38888889 </v>
   <v>       0.38383838       0.38383838       0.38383838 </v>
   <v>       0.37878788       0.37878788       0.37878788 </v>
   <v>       0.37373737       0.37373737       0.37373737 </v>
   <v>       0.36868687       0.36868687       0.36868687 </v>
   <v>       0.36363636       0.36363636       0.36363636 </v>
   <v>       0.35858586       0.35858586       0.35858586 </v>
   <v>       0.35353535       0.35353535       0.35353535 </v>
   <v>       0.34848485       0.34848485       0.34848485 </v>
   <v>       0.34343434       0.34343434       0.34343434 </v>
   <v>       0.33838384       0.33838384       0.33838384 </v>
   <v>       0.33333333       0.33333333       0.33333333 </v>
   <v>       0.32828283       0.32828283       0.32828283 </v>
   <v>       0.32323232       0.32323232       0.32323232 </v>
   <v>       0.31818182       0.31818182       0.31818182 </v>
   <v>       0.31313131       0.31313131       0.31313131 </v>
   <v>       0.30808081       0.30808081       0.30808081 </v>
   <v>       0.30303030       0.30303030       0.30303030 </v>
   <v>       0.29797980       0.29797980       0.29797980 </v>
   <v>       0.29292929       0.29292929       0.29292929 </v>
   <v>       0.28787879       0.28787879       0.28787879 </v>
   <v>       0.28282828       0.28282828       0.28282828 </v>
   <v>       0.27777778       0.27777778       0.27777778 </v>
   <v>       0.27272727       0.27272727       0.27272727 </v>
   <v>       0.26767677       0.26767677       0.26767677 </v>
   <v>       0.26262626       0.26262626       0.26262626 </v>
   <v>       0.25757576       0.25757576       0.25757576 </v>
   <v>       0.25252525       0.25252525       0.25252525 </v>
   <v>       0.24747475       0.24747475       0.24747475 </v>
   <v>       0.24242424       0.24242424       0.24242424 </v>
   <v>       0.23737374       0.23737374       0.23737374 </v>
   <v>       0.23232323       0.23232323       0.23232323 </v>
   <v>       0.22727273       0.22727273       0.22727273 </v>
   <v>       0.22222222       0.22222222       0.22222222 </v>
   <v>       0.21717172       0.21717172       0.21717172 </v>
   <v>       0.21212121       0.21212121       0.21212121 </v>
   <v>       0.20707071       0.20707071       0.20707071 </v>
   <v>       0.20202020       0.20202020       0.20202020 </v>
   <v>       0.19696970       0.19696970       0.19696970 </v>
   <v>       0.19191919       0.19191919       0.19191919 </v>
   <v>       0.18686869       0.18686869       0.18686869 </v>
   <v>       0.18181818       0.18181818       0.18181818 </v>
   <v>       0.17676768       0.17676768       0.17676768 </v>
   <v>       0.17171717       0.17171717       0.17171717 </v>
   <v>       0.16666667       0.16666667       0.16666667 </v>
   <v>       0.16161616       0.16161616       0.16161616 </v>
   <v>       0.15656566       0.15656566       0.15656566 </v>
   <v>       0.15151515       0.15151515       0.15151515 </v>
   <v>       0.14646465       0.14646465       0.14646465 </v>
   <v>       0.14141414       0.14141414       0.14141414 </v>
   <v>       0.13636364       0.13636364       0.13636364 </v>
   <v>       0.13131313       0.13131313       0.13131313 </v>
   <v>       0.12626263       0.12626263       0.12626263 </v>
   <v>       0.12121212       0.12121212       0.12121212 </v>
   <v>       0.11616162       0.11616162       0.11616162 </v>
   <v>       0.11111111       0.11111111       0.11111111 </v>
   <v>       0.10606061       0.10606061       0.10606061 </v>
   <v>       0.10101010       0.10101010       0.10101010 </v>
   <v>       0.09595960       0.09595960       0.09595960 </v>
   <v>       0.09090909       0.09090909       0.09090909 </v>
   <v>       0.08585859       0.08585859       0.08585859 </v>
   <v>       0.08080808       0.08080808       0.08080808 </v>
   <v>       0.07575758       0.07575758       0.07575758 </v>
   <v>       0.07070707       0.07070707       0.07070707 </v>
   <v>       0.06565657       0.06565657       0.06565657 </v>
   <v>       0.06060606       0.06060606       0.06060606 </v>
   <v>       0.05555556       0.05555556       0.05555556 </v>
   <v>       0.05050505       0.05050505       0.05050505 </v>
   <v>       0.04545455       0.04545455       0.04545455 </v>
   <v>       0.04040404       0.04040404       0.04040404 </v>
   <v>       0.03535354       0.03535354       0.03535354 </v>
   <v>       0.03030303       0.03030303       0.03030303 </v>
   <v>       0.02525253       0.02525253       0.02525253 </v>
   <v>       0.02020202       0.02020202       0.02020202 </v>
   <v>       0.01515152       0.01515152       0.01515152 </v>
   <v>       0.01010101       0.01010101       0.01010101 </v>
   <v>       0.00505051       0.00505051       0.00505051 </v>
   <v>       0.00000000       0.00000000       0.00000000 </v>
   <v>       0.00000000       0.00000000       0.00000000 </v>
   <v>       0.00000000       0.00505051       0.00505051 </v>
   <v>       0.00000000       0.01010101       0.01010101 </v>
   <v>       0.00000000       0.01515152       0.01515152 </v>
   <v>       0.00000000       0.02020202       0.02020202 </v>
   <v>       0.00000000       0.02525253       0.02525253 </v>
   <v>       0.00000000       0.03030303       0.03030303 </v>
   <v>       0.00000000       0.03535354       0.03535354 </v>
   <v>       0.00000000       0.04040404       0.04040404 </v>
   <v>       0.00000000       0.04545455       0.04545455 </v>
   <v>       0.00000000       0.05050505       0.05050505 </v>
   <v>       0.00000000       0.05555556       0.05555556 </v>
   <v>       0.00000000       0.06060606       0.06060606 </v>
   <v>       0.00000000       0.06565657       0.06565657 </v>
   <v>       0.00000000       0.07070707       0.07070707 </v>
   <v>       0.00000000       0.07575758       0.07575758 </v>
   <v>       0.00000000       0.08080808       0.08080808 </v>
   <v>       0.00000000       0.08585859       0.08585859 </v>
   <v>       0.00000000       0.09090909       0.09090909 </v>
   <v>       0.00000000       0.09595960       0.09595960 </v>
   <v>       0.00000000       0.10101010       0.10101010 </v>
   <v>       0.00000000       0.10606061       0.10606061 </v>
   <v>       0.00000000       0.11111111       0.11111111 </v>
   <v>       0.00000000       0.11616162       0.11616162 </v>
   <v>       0.00000000       0.12121212       0.12121212 </v>
   <v>       0.00000000       0.12626263       0.12626263 </v>
   <v>       0.00000000       0.13131313       0.13131313 </v>
   <v>       0.00000000       0.13636364       0.13636364 </v>
   <v>       0.00000000       0.14141414       0.14141414 </v>
   <v>       0.00000000       0.14646465       0.14646465 </v>
   <v>       0.00000000       0.15151515       0.15151515 </v>
   <v>       0.00000000       0.15656566       0.15656566 </v>
   <v>       0.00000000       0.16161616       0.16161616 </v>
   <v>       0.00000000       0.16666667       0.16666667 </v>
   <v>       0.00000000       0.17171717       0.17171717 </v>
   <v>       0.00000000       0.17676768       0.17676768 </v>
   <v>       0.00000000       0.18181818       0.18181818 </v>
   <v>       0.00000000       0.18686869       0.18686869 </v>
   <v>       0.00000000       0.19191919       0.19191919 </v>
   <v>       0.00000000       0.19696970       0.19696970 </v>
   <v>       0.00000000       0.20202020       0.20202020 </v>
   <v>       0.00000000       0.20707071       0.20707071 </v>
   <v>       0.00000000       0.21212121       0.21212121 </v>
   <v>       0.00000000       0.21717172       0.21717172 </v>
   <v>       0.00000000       0.22222222       0.22222222 </v>
   <v>       0.00000000       0.22727273       0.22727273 </v>
   <v>       0.00000000       0.23232323       0.23232323 </v>
   <v>       0.00000000       0.23737374       0.23737374 </v>
   <v>       0.00000000       0.24242424       0.24242424 </v>
   <v>       0.00000000       0.24747475       0.24747475 </v>
   <v>       0.00000000       0.25252525       0.25252525 </v>
   <v>       0.00000000       0.25757576       0.25757576 </v>
   <v>       0.00000000       0.26262626       0.26262626 </v>
   <v>       0.00000000       0.26767677       0.26767677 </v>
   <v>       0.00000000       0.27272727       0.27272727 </v>
   <v>       0.00000000       0.27777778       0.27777778 </v>
   <v>       0.00000000       0.28282828       0.28282828 </v>
   <v>       0.00000000       0.28787879       0.28787879 </v>
   <v>       0.00000000       0.29292929       0.29292929 </v>
   <v>       0.00000000       0.29797980       0.29797980 </v>
   <v>       0.00000000       0.30303030       0.30303030 </v>
   <v>       0.00000000       0.30808081       0.30808081 </v>
   <v>       0.00000000       0.31313131       0.31313131 </v>
   <v>       0.00000000       0.31818182       0.31818182 </v>
   <v>       0.00000000       0.32323232       0.32323232 </v>
   <v>       0.00000000       0.32828283       0.32828283 </v>
   <v>       0.00000000       0.33333333       0.33333333 </v>
   <v>       0.00000000       0.33838384       0.33838384 </v>
   <v>       0.00000000       0.34343434       0.34343434 </v>
   <v>       0.00000000       0.34848485       0.34848485 </v>
   <v>       0.00000000       0.35353535       0.35353535 </v>
   <v>       0.00000000       0.35858586       0.35858586 </v>
   <v>       0.00000000       0.36363636       0.36363636 </v>
   <v>       0.00000000       0.36868687       0.36868687 </v>
   <v>       0.00000000       0.37373737       0.37373737 </v>
   <v>       0.00000000       0.37878788       0.37878788 </v>
   <v>       0.00000000       0.38383838       0.38383838 </v>
   <v>       0.00000000       0.38888889       0.38888889 </v>
   <v>       0.00000000       0.39393939       0.39393939 </v>
   <v>       0.00000000       0.39898990       0.39898990 </v>
   <v>       0.00000000       0.40404040       0.40404040 </v>
   <v>       0.00000000       0.40909091       0.40909091 </v>
   <v>       0.00000000       0.41414141       0.41414141 </v>
   <v>       0.00000000       0.41919192       0.41919192 </v>
   <v>       0.00000000       0.42424242       0.42424242 </v>
   <v>       0.00000000       0.42929293       0.42929293 </v>
   <v>       0.00000000       0.43434343       0.43434343 </v>
   <v>       0.00000000       0.43939394       0.43939394 </v>
   <v>       0.00000000       0.44444444       0.44444444 </v>
   <v>       0.00000000       0.44949495       0.44949495 </v>
   <v>       0.00000000       0.45454545       0.45454545 </v>
   <v>       0.00000000       0.45959596       0.45959596 </v>
   <v>       0.00000000       0.46464646       0.46464646 </v>
   <v>       0.00000000       0.46969697       0.46969697 </v>
   <v>       0.00000000       0.47474747       0.47474747 </v>
   <v>       0.00000000       0.47979798       0.47979798 </v>
   <v>       0.00000000       0.48484848       0.48484848 </v>
   <v>       0.00000000       0.48989899       0.48989899 </v>
   <v>       0.00000000       0.49494949       0.49494949 </v>
   <v>       0.00000000       0.50000000       0.50000000 </v>
   <v>       0.00000000       0.50000000       0.50000000 </v>
   <v>       0.00252525       0.50126263       0.50126263 </v>
   <v>       0.00505051       0.50252525       0.50252525 </v>
   <v>       0.00757576       0.50378788       0.50378788 </v>
   <v>       0.01010101       0.50505051       0.50505051 </v>
   <v>       0.01262626       0.50631313       0.50631313 </v>
   <v>       0.01515152       0.50757576       0.50757576 </v>
   <v>       0.01767677       0.50883838       0.50883838 </v>
   <v>       0.02020202       0.51010101       0.51010101 </v>
   <v>       0.02272727       0.51136364       0.51136364 </v>
   <v>       0.02525253       0.51262626       0.51262626 </v>
   <v>       0.02777778       0.51388889       0.51388889 </v>
   <v>       0.03030303       0.51515152       0.51515152 </v>
   <v>       0.03282828       0.51641414       0.51641414 </v>
   <v>       0.03535354       0.51767677       0.51767677 </v>
   <v>       0.03787879       0.51893939       0.51893939 </v>
   <v>       0.04040404       0.52020202       0.52020202 </v>
   <v>       0.04292929       0.52146465       0.52146465 </v>
   <v>       0.04545455       0.52272727       0.52272727 </v>
   <v>       0.04797980       0.52398990       0.52398990 </v>
   <v>       0.05050505       0.52525253       0.52525253 </v>
   <v>       0.05303030       0.52651515       0.52651515 </v>
   <v>       0.05555556       0.52777778       0.52777778 </v>
   <v>       0.05808081       0.52904040       0.52904040 </v>
   <v>       0.06060606       0.53030303       0.53030303 </v>
   <v>       0.06313131       0.53156566       0.53156566 </v>
   <v>       0.06565657       0.53282828       0.53282828 </v>
   <v>       0.06818182       0.53409091       0.53409091 </v>
   <v>       0.07070707       0.53535354       0.53535354 </v>
   <v>       0.07323232       0.53661616       0.53661616 </v>
   <v>       0.07575758       0.53787879       0.53787879 </v>
   <v>       0.07828283       0.53914141       0.53914141 </v>
   <v>       0.08080808       0.54040404       0.54040404 </v>
   <v>       0.08333333       0.54166667       0.54166667 </v>
   <v>       0.08585859       0.54292929       0.54292929 </v>
   <v>       0.08838384       0.54419192       0.54419192 </v>
   <v>       0.09090909       0.54545455       0.54545455 </v>
   <v>       0.09343434       0.54671717       0.54671717 </v>
   <v>       0.09595960       0.54797980       0.54797980 </v>
   <v>       0.09848485       0.54924242       0.54924242 </v>
   <v>       0.10101010       0.55050505       0.55050505 </v>
   <v>       0.10353535       0.55176768       0.55176768 </v>
   <v>       0.10606061       0.55303030       0.55303030 </v>
   <v>       0.10858586       0.55429293       0.55429293 </v>
   <v>       0.11111111       0.55555556       0.55555556 </v>
   <v>       0.11363636       0.55681818       0.55681818 </v>
   <v>       0.11616162       0.55808081       0.55808081 </v>
   <v>       0.11868687       0.55934343       0.55934343 </v>
   <v>       0.12121212       0.56060606       0.56060606 </v>
   <v>       0.12373737       0.56186869       0.56186869 </v>
   <v>       0.12626263       0.56313131       0.56313131 </v>
   <v>       0.12878788       0.56439394       0.56439394 </v>
   <v>       0.13131313       0.56565657       0.56565657 </v>
   <v>       0.13383838       0.56691919       0.56691919 </v>
   <v>       0.13636364       0.56818182       0.56818182 </v>
   <v>       0.13888889       0.56944444       0.56944444 </v>
   <v>       0.14141414       0.57070707       0.57070707 </v>
   <v>       0.14393939       0.57196970       0.57196970 </v>
   <v>       0.14646465       0.57323232       0.57323232 </v>
   <v>       0.14898990       0.57449495       0.57449495 </v>
   <v>       0.15151515       0.57575758       0.57575758 </v>
   <v>       0.15404040       0.57702020       0.57702020 </v>
   <v>       0.15656566       0.57828283       0.57828283 </v>
   <v>       0.15909091       0.57954545       0.57954545 </v>
   <v>       0.16161616       0.58080808       0.58080808 </v>
   <v>       0.16414141       0.58207071       0.58207071 </v>
   <v>       0.16666667       0.58333333       0.58333333 </v>
   <v>       0.16919192       0.58459596       0.58459596 </v>
   <v>       0.17171717       0.58585859       0.58585859 </v>
   <v>       0.17424242       0.58712121       0.58712121 </v>
   <v>       0.17676768       0.58838384       0.58838384 </v>
   <v>       0.17929293       0.58964646       0.58964646 </v>
   <v>       0.18181818       0.59090909       0.59090909 </v>
   <v>       0.18434343       0.59217172       0.59217172 </v>
   <v>       0.18686869       0.59343434       0.59343434 </v>
   <v>       0.18939394       0.59469697       0.59469697 </v>
   <v>       0.19191919       0.59595960       0.59595960 </v>
   <v>       0.19444444       0.59722222       0.59722222 </v>
   <v>       0.19696970       0.59848485       0.59848485 </v>
   <v>       0.19949495       0.59974747       0.59974747 </v>
   <v>       0.20202020       0.60101010       0.60101010 </v>
   <v>       0.20454545       0.60227273       0.60227273 </v>
   <v>       0.20707071       0.60353535       0.60353535 </v>
   <v>       0.20959596       0.60479798       0.60479798 </v>
   <v>       0.21212121       0.60606061       0.60606061 </v>
   <v>       0.21464646       0.60732323       0.60732323 </v>
   <v>       0.21717172       0.60858586       0.60858586 </v>
   <v>       0.21969697       0.60984848       0.60984848 </v>
   <v>       0.22222222       0.61111111       0.61111111 </v>
   <v>       0.22474747       0.61237374       0.61237374 </v>
   <v>       0.22727273       0.61363636       0.61363636 </v>
   <v>       0.22979798       0.61489899       0.61489899 </v>
   <v>       0.23232323       0.61616162       0.61616162 </v>
   <v>       0.23484848       0.61742424       0.61742424 </v>
   <v>       0.23737374       0.61868687       0.61868687 </v>
   <v>       0.23989899       0.61994949       0.61994949 </v>
   <v>       0.24242424       0.62121212       0.62121212 </v>
   <v>       0.24494949       0.62247475       0.62247475 </v>
   <v>       0.24747475       0.62373737       0.62373737 </v>
   <v>       0.25000000       0.62500000       0.62500000 </v>
   <v>       0.37500000       0.75000000       0.37500000 </v>
   <v>       0.37121212       0.74242424       0.37121212 </v>
   <v>       0.36742424       0.73484848       0.36742424 </v>
   <v>       0.36363636       0.72727273       0.36363636 </v>
   <v>       0.35984848       0.71969697       0.35984848 </v>
   <v>       0.35606061       0.71212121       0.35606061 </v>
   <v>       0.35227273       0.70454545       0.35227273 </v>
   <v>       0.34848485       0.69696970       0.34848485 </v>
   <v>       0.34469697       0.68939394       0.34469697 </v>
   <v>       0.34090909       0.68181818       0.34090909 </v>
   <v>       0.33712121       0.67424242       0.33712121 </v>
   <v>       0.33333333       0.66666667       0.33333333 </v>
   <v>       0.32954545       0.65909091       0.32954545 </v>
   <v>       0.32575758       0.65151515       0.32575758 </v>
   <v>       0.32196970       0.64393939       0.32196970 </v>
   <v>       0.31818182       0.63636364       0.31818182 </v>
   <v>       0.31439394       0.62878788       0.31439394 </v>
   <v>       0.31060606       0.62121212       0.31060606 </v>
   <v>       0.30681818       0.61363636       0.30681818 </v>
   <v>       0.30303030       0.60606061       0.30303030 </v>
   <v>       0.29924242       0.59848485       0.29924242 </v>
   <v>       0.29545455       0.59090909       0.29545455 </v>
   <v>       0.29166667       0.58333333       0.29166667 </v>
   <v>       0.28787879       0.57575758       0.28787879 </v>
   <v>       0.28409091       0.56818182       0.28409091 </v>
   <v>       0.28030303       0.56060606       0.28030303 </v>
   <v>       0.27651515       0.55303030       0.27651515 </v>
   <v>       0.27272727       0.54545455       0.27272727 </v>
   <v>       0.26893939       0.53787879       0.26893939 </v>
   <v>       0.26515152       0.53030303       0.26515152 </v>
   <v>       0.26136364       0.52272727       0.26136364 </v>
   <v>       0.25757576       0.51515152       0.25757576 </v>
   <v>       0.25378788       0.50757576       0.25378788 </v>
   <v>       0.25000000       0.50000000       0.25000000 </v>
   <v>       0.24621212       0.49242424       0.24621212 </v>
   <v>       0.24242424       0.48484848       0.24242424 </v>
   <v>       0.23863636       0.47727273       0.23863636 </v>
   <v>       0.23484848       0.46969697       0.23484848 </v>
   <v>       0.23106061       0.46212121       0.23106061 </v>
   <v>       0.22727273       0.45454545       0.22727273 </v>
   <v>       0.22348485       0.44696970       0.22348485 </v>
   <v>       0.21969697       0.43939394       0.21969697 </v>
   <v>       0.21590909       0.43181818       0.21590909 </v>
   <v>       0.21212121       0.42424242       0.21212121 </v>
   <v>       0.20833333       0.41666667       0.20833333 </v>
   <v>       0.20454545       0.40909091       0.20454545 </v>
   <v>       0.20075758       0.40151515       0.20075758 </v>
   <v>       0.19696970       0.39393939       0.19696970 </v>
   <v>       0.19318182       0.38636364       0.19318182 </v>
   <v>       0.18939394       0.37878788       0.18939394 </v>
   <v>       0.18560606       0.37121212       0.18560606 </v>
   <v>       0.18181818       0.36363636       0.18181818 </v>
   <v>       0.17803030       0.35606061       0.17803030 </v>
   <v>       0.17424242       0.34848485       0.17424242 </v>
   <v>       0.17045455       0.34090909       0.17045455 </v>
   <v>       0.16666667       0.33333333       0.16666667 </v>
   <v>       0.16287879       0.32575758       0.16287879 </v>
   <v>       0.15909091       0.31818182       0.15909091 </v>
   <v>       0.15530303       0.31060606       0.15530303 </v>
   <v>       0.15151515       0.30303030       0.15151515 </v>
   <v>       0.14772727       0.29545455       0.14772727 </v>
   <v>       0.14393939       0.28787879       0.14393939 </v>
   <v>       0.14015152       0.28030303       0.14015152 </v>
   <v>       0.13636364       0.27272727       0.13636364 </v>
   <v>       0.13257576       0.26515152       0.13257576 </v>
   <v>       0.12878788       0.25757576       0.12878788 </v>
   <v>       0.12500000       0.25000000       0.12500000 </v>
   <v>       0.12121212       0.24242424       0.12121212 </v>
   <v>       0.11742424       0.23484848       0.11742424 </v>
   <v>       0.11363636       0.22727273       0.11363636 </v>
   <v>       0.10984848       0.21969697       0.10984848 </v>
   <v>       0.10606061       0.21212121       0.10606061 </v>
   <v>       0.10227273       0.20454545       0.10227273 </v>
   <v>       0.09848485       0.19696970       0.09848485 </v>
   <v>       0.09469697       0.18939394       0.09469697 </v>
   <v>       0.09090909       0.18181818       0.09090909 </v>
   <v>       0.08712121       0.17424242       0.08712121 </v>
   <v>       0.08333333       0.16666667       0.08333333 </v>
   <v>       0.07954545       0.15909091       0.07954545 </v>
   <v>       0.07575758       0.15151515       0.07575758 </v>
   <v>       0.07196970       0.14393939       0.07196970 </v>
   <v>       0.06818182       0.13636364       0.06818182 </v>
   <v>       0.06439394       0.12878788       0.06439394 </v>
   <v>       0.06060606       0.12121212       0.06060606 </v>
   <v>       0.05681818       0.11363636       0.05681818 </v>
   <v>       0.05303030       0.10606061       0.05303030 </v>
   <v>       0.04924242       0.09848485       0.04924242 </v>
   <v>       0.04545455       0.09090909       0.04545455 </v>
   <v>       0.04166667       0.08333333       0.04166667 </v>
   <v>       0.03787879       0.07575758       0.03787879 </v>
   <v>       0.03409091       0.06818182       0.03409091 </v>
   <v>       0.03030303       0.06060606       0.03030303 </v>
   <v>       0.02651515       0.05303030       0.02651515 </v>
   <v>       0.02272727       0.04545455       0.02272727 </v>
   <v>       0.01893939       0.03787879       0.01893939 </v>
   <v>       0.01515152       0.03030303       0.01515152 </v>
   <v>       0.01136364       0.02272727       0.01136364 </v>
   <v>       0.00757576       0.01515152       0.00757576 </v>
   <v>       0.00378788       0.00757576       0.00378788 </v>
   <v>       0.00000000       0.00000000       0.00000000 </v>
  </varray>
  <varray name="weights" >
   <v>       0.00250000 </v>
   <v>       0.00250000 </v>
   <v>       0.00250000 </v>
   <v>       0.00250000 </v>
   <v>       0.00250000 </v>
   <v>       0.00250000 </v>
   <v>       0.00250000 </v>
   <v>       0.00250000 </v>
   <v>       0.00250000 </v>
   <v>       0.00250000 </v>
   <v>       0.00250000 </v>
   <v>       0.00250000 </v>
   <v>       0.00250000 </v>
   <v>       0.00250000 </v>
   <v>       0.00250000 </v>
   <v>       0.00250000 </v>
   <v>       0.00250000 </v>
   <v>       0.00250000 </v>
   <v>       0.00250000 </v>
   <v>       0.00250000 </v>
   <v>       0.00250000 </v>
   <v>       0.00250000 </v>
   <v>       0.00250000 </v>
   <v>       0.00250000 </v>
   <v>       0.00250000 </v>
   <v>       0.00250000 </v>
   <v>       0.00250000 </v>
   <v>       0.00250000 </v>
   <v>       0.00250000 </v>
   <v>       0.00250000 </v>
   <v>       0.00250000 </v>
   <v>       0.00250000 </v>
   <v>       0.00250000 </v>
   <v>       0.00250000 </v>
   <v>       0.00250000 </v>
   <v>       0.00250000 </v>
   <v>       0.00250000 </v>
   <v>       0.00250000 </v>
   <v>       0.00250000 </v>
   <v>       0.00250000 </v>
   <v>       0.00250000 </v>
   <v>       0.00250000 </v>
   <v>       0.00250000 </v>
   <v>       0.00250000 </v>
   <v>       0.00250000 </v>
   <v>       0.00250000 </v>
   <v>       0.00250000 </v>
   <v>       0.00250000 </v>
   <v>       0.00250000 </v>
   <v>       0.00250000 </v>
   <v>       0.00250000 </v>
   <v>       0.00250000 </v>
   <v>       0.00250000 </v>
   <v>       0.00250000 </v>
   <v>       0.00250000 </v>
   <v>       0.00250000 </v>
   <v>       0.00250000 </v>
   <v>       0.00250000 </v>
   <v>       0.00250000 </v>
   <v>       0.00250000 </v>
   <v>       0.00250000 </v>
   <v>       0.00250000 </v>
   <v>       0.00250000 </v>
   <v>       0.00250000 </v>
   <v>       0.00250000 </v>
   <v>       0.00250000 </v>
   <v>       0.00250000 </v>
   <v>       0.00250000 </v>
   <v>       0.00250000 </v>
   <v>       0.00250000 </v>
   <v>       0.00250000 </v>
   <v>       0.00250000 </v>
   <v>       0.00250000 </v>
   <v>       0.00250000 </v>
   <v>       0.00250000 </v>
   <v>       0.00250000 </v>
   <v>       0.00250000 </v>
   <v>       0.00250000 </v>
   <v>       0.00250000 </v>
   <v>       0.00250000 </v>
   <v>       0.00250000 </v>
   <v>       0.00250000 </v>
   <v>       0.00250000 </v>
   <v>       0.00250000 </v>
   <v>       0.00250000 </v>
   <v>       0.00250000 </v>
   <v>       0.00250000 </v>
   <v>       0.00250000 </v>
   <v>       0.00250000 </v>
   <v>       0.00250000 </v>
   <v>       0.00250000 </v>
   <v>       0.00250000 </v>
   <v>       0.00250000 </v>
   <v>       0.00250000 </v>
   <v>       0.00250000 </v>
   <v>       0.00250000 </v>
   <v>       0.00250000 </v>
   <v>       0.00250000 </v>
   <v>       0.00250000 </v>
   <v>       0.00250000 </v>
   <v>       0.00250000 </v>
   <v>       0.00250000 </v>
   <v>       0.00250000 </v>
   <v>       0.00250000 </v>
   <v>       0.00250000 </v>
   <v>       0.00250000 </v>
   <v>       0.00250000 </v>
   <v>       0.00250000 </v>
   <v>       0.00250000 </v>
   <v>       0.00250000 </v>
   <v>       0.00250000 </v>
   <v>       0.00250000 </v>
   <v>       0.00250000 </v>
   <v>       0.00250000 </v>
   <v>       0.00250000 </v>
   <v>       0.00250000 </v>
   <v>       0.00250000 </v>
   <v>       0.00250000 </v>
   <v>       0.00250000 </v>
   <v>       0.00250000 </v>
   <v>       0.00250000 </v>
   <v>       0.00250000 </v>
   <v>       0.00250000 </v>
   <v>       0.00250000 </v>
   <v>       0.00250000 </v>
   <v>       0.00250000 </v>
   <v>       0.00250000 </v>
   <v>       0.00250000 </v>
   <v>       0.00250000 </v>
   <v>       0.00250000 </v>
   <v>       0.00250000 </v>
   <v>       0.00250000 </v>
   <v>       0.00250000 </v>
   <v>       0.00250000 </v>
   <v>       0.00250000 </v>
   <v>       0.00250000 </v>
   <v>       0.00250000 </v>
   <v>       0.00250000 </v>
   <v>       0.00250000 </v>
   <v>       0.00250000 </v>
   <v>       0.00250000 </v>
   <v>       0.00250000 </v>
   <v>       0.00250000 </v>
   <v>       0.00250000 </v>
   <v>       0.00250000 </v>
   <v>       0.00250000 </v>
   <v>       0.00250000 </v>
   <v>       0.00250000 </v>
   <v>       0.00250000 </v>
   <v>       0.00250000 </v>
   <v>       0.00250000 </v>
   <v>       0.00250000 </v>
   <v>       0.00250000 </v>
   <v>       0.00250000 </v>
   <v>       0.00250000 </v>
   <v>       0.00250000 </v>
   <v>       0.00250000 </v>
   <v>       0.00250000 </v>
   <v>       0.00250000 </v>
   <v>       0.00250000 </v>
   <v>       0.00250000 </v>
   <v>       0.00250000 </v>
   <v>       0.00250000 </v>
   <v>       0.00250000 </v>
   <v>       0.00250000 </v>
   <v>       0.00250000 </v>
   <v>       0.00250000 </v>
   <v>       0.00250000 </v>
   <v>       0.00250000 </v>
   <v>       0.00250000 </v>
   <v>       0.00250000 </v>
   <v>       0.00250000 </v>
   <v>       0.00250000 </v>
   <v>       0.00250000 </v>
   <v>       0.00250000 </v>
   <v>       0.00250000 </v>
   <v>       0.00250000 </v>
   <v>       0.00250000 </v>
   <v>       0.00250000 </v>
   <v>       0.00250000 </v>
   <v>       0.00250000 </v>
   <v>       0.00250000 </v>
   <v>       0.00250000 </v>
   <v>       0.00250000 </v>
   <v>       0.00250000 </v>
   <v>       0.00250000 </v>
   <v>       0.00250000 </v>
   <v>       0.00250000 </v>
   <v>       0.00250000 </v>
   <v>       0.00250000 </v>
   <v>       0.00250000 </v>
   <v>       0.00250000 </v>
   <v>       0.00250000 </v>
   <v>       0.00250000 </v>
   <v>       0.00250000 </v>
   <v>       0.00250000 </v>
   <v>       0.00250000 </v>
   <v>       0.00250000 </v>
   <v>       0.00250000 </v>
   <v>       0.00250000 </v>
   <v>       0.00250000 </v>
   <v>       0.00250000 </v>
   <v>       0.00250000 </v>
   <v>       0.00250000 </v>
   <v>       0.00250000 </v>
   <v>       0.00250000 </v>
   <v>       0.00250000 </v>
   <v>       0.00250000 </v>
   <v>       0.00250000 </v>
   <v>       0.00250000 </v>
   <v>       0.00250000 </v>
   <v>       0.00250000 </v>
   <v>       0.00250000 </v>
   <v>       0.00250000 </v>
   <v>       0.00250000 </v>
   <v>       0.00250000 </v>
   <v>       0.00250000 </v>
   <v>       0.00250000 </v>
   <v>       0.00250000 </v>
   <v>       0.00250000 </v>
   <v>       0.00250000 </v>
   <v>       0.00250000 </v>
   <v>       0.00250000 </v>
   <v>       0.00250000 </v>
   <v>       0.00250000 </v>
   <v>       0.00250000 </v>
   <v>       0.00250000 </v>
   <v>       0.00250000 </v>
   <v>       0.00250000 </v>
   <v>       0.00250000 </v>
   <v>       0.00250000 </v>
   <v>       0.00250000 </v>
   <v>       0.00250000 </v>
   <v>       0.00250000 </v>
   <v>       0.00250000 </v>
   <v>       0.00250000 </v>
   <v>       0.00250000 </v>
   <v>       0.00250000 </v>
   <v>       0.00250000 </v>
   <v>       0.00250000 </v>
   <v>       0.00250000 </v>
   <v>       0.00250000 </v>
   <v>       0.00250000 </v>
   <v>       0.00250000 </v>
   <v>       0.00250000 </v>
   <v>       0.00250000 </v>
   <v>       0.00250000 </v>
   <v>       0.00250000 </v>
   <v>       0.00250000 </v>
   <v>       0.00250000 </v>
   <v>       0.00250000 </v>
   <v>       0.00250000 </v>
   <v>       0.00250000 </v>
   <v>       0.00250000 </v>
   <v>       0.00250000 </v>
   <v>       0.00250000 </v>
   <v>       0.00250000 </v>
   <v>       0.00250000 </v>
   <v>       0.00250000 </v>
   <v>       0.00250000 </v>
   <v>       0.00250000 </v>
   <v>       0.00250000 </v>
   <v>       0.00250000 </v>
   <v>       0.00250000 </v>
   <v>       0.00250000 </v>
   <v>       0.00250000 </v>
   <v>       0.00250000 </v>
   <v>       0.00250000 </v>
   <v>       0.00250000 </v>
   <v>       0.00250000 </v>
   <v>       0.00250000 </v>
   <v>       0.00250000 </v>
   <v>       0.00250000 </v>
   <v>       0.00250000 </v>
   <v>       0.00250000 </v>
   <v>       0.00250000 </v>
   <v>       0.00250000 </v>
   <v>       0.00250000 </v>
   <v>       0.00250000 </v>
   <v>       0.00250000 </v>
   <v>       0.00250000 </v>
   <v>       0.00250000 </v>
   <v>       0.00250000 </v>
   <v>       0.00250000 </v>
   <v>       0.00250000 </v>
   <v>       0.00250000 </v>
   <v>       0.00250000 </v>
   <v>       0.00250000 </v>
   <v>       0.00250000 </v>
   <v>       0.00250000 </v>
   <v>       0.00250000 </v>
   <v>       0.00250000 </v>
   <v>       0.00250000 </v>
   <v>       0.00250000 </v>
   <v>       0.00250000 </v>
   <v>       0.00250000 </v>
   <v>       0.00250000 </v>
   <v>       0.00250000 </v>
   <v>       0.00250000 </v>
   <v>       0.00250000 </v>
   <v>       0.00250000 </v>
   <v>       0.00250000 </v>
   <v>       0.00250000 </v>
   <v>       0.00250000 </v>
   <v>       0.00250000 </v>
   <v>       0.00250000 </v>
   <v>       0.00250000 </v>
   <v>       0.00250000 </v>
   <v>       0.00250000 </v>
   <v>       0.00250000 </v>
   <v>       0.00250000 </v>
   <v>       0.00250000 </v>
   <v>       0.00250000 </v>
   <v>       0.00250000 </v>
   <v>       0.00250000 </v>
   <v>       0.00250000 </v>
   <v>       0.00250000 </v>
   <v>       0.00250000 </v>
   <v>       0.00250000 </v>
   <v>       0.00250000 </v>
   <v>       0.00250000 </v>
   <v>       0.00250000 </v>
   <v>       0.00250000 </v>
   <v>       0.00250000 </v>
   <v>       0.00250000 </v>
   <v>       0.00250000 </v>
   <v>       0.00250000 </v>
   <v>       0.00250000 </v>
   <v>       0.00250000 </v>
   <v>       0.00250000 </v>
   <v>       0.00250000 </v>
   <v>       0.00250000 </v>
   <v>       0.00250000 </v>
   <v>       0.00250000 </v>
   <v>       0.00250000 </v>
   <v>       0.00250000 </v>
   <v>       0.00250000 </v>
   <v>       0.00250000 </v>
   <v>       0.00250000 </v>
   <v>       0.00250000 </v>
   <v>       0.00250000 </v>
   <v>       0.00250000 </v>
   <v>       0.00250000 </v>
   <v>       0.00250000 </v>
   <v>       0.00250000 </v>
   <v>       0.00250000 </v>
   <v>       0.00250000 </v>
   <v>       0.00250000 </v>
   <v>       0.00250000 </v>
   <v>       0.00250000 </v>
   <v>       0.00250000 </v>
   <v>       0.00250000 </v>
   <v>       0.00250000 </v>
   <v>       0.00250000 </v>
   <v>       0.00250000 </v>
   <v>       0.00250000 </v>
   <v>       0.00250000 </v>
   <v>       0.00250000 </v>
   <v>       0.00250000 </v>
   <v>       0.00250000 </v>
   <v>       0.00250000 </v>
   <v>       0.00250000 </v>
   <v>       0.00250000 </v>
   <v>       0.00250000 </v>
   <v>       0.00250000 </v>
   <v>       0.00250000 </v>
   <v>       0.00250000 </v>
   <v>       0.00250000 </v>
   <v>       0.00250000 </v>
   <v>       0.00250000 </v>
   <v>       0.00250000 </v>
   <v>       0.00250000 </v>
   <v>       0.00250000 </v>
   <v>       0.00250000 </v>
   <v>       0.00250000 </v>
   <v>       0.00250000 </v>
   <v>       0.00250000 </v>
   <v>       0.00250000 </v>
   <v>       0.00250000 </v>
   <v>       0.00250000 </v>
   <v>       0.00250000 </v>
   <v>       0.00250000 </v>
   <v>       0.00250000 </v>
   <v>       0.00250000 </v>
   <v>       0.00250000 </v>
   <v>       0.00250000 </v>
   <v>       0.00250000 </v>
   <v>       0.00250000 </v>
   <v>       0.00250000 </v>
   <v>       0.00250000 </v>
   <v>       0.00250000 </v>
   <v>       0.00250000 </v>
   <v>       0.00250000 </v>
   <v>       0.00250000 </v>
   <v>       0.00250000 </v>
   <v>       0.00250000 </v>
   <v>       0.00250000 </v>
   <v>       0.00250000 </v>
   <v>       0.00250000 </v>
   <v>       0.00250000 </v>
  </varray>
 </kpoints>
 <parameters>
  <separator name="general" >
   <i type="string" name="SYSTEM">fcc Si</i>
   <i type="logical" name="LCOMPAT"> F  </i>
  </separator>
  <separator name="electronic" >
   <i type="string" name="PREC">normal</i>
   <i name="ENMAX">    240.00000000</i>
   <i name="ENAUG">    322.06900000</i>
   <i name="EDIFF">      0.00010000</i>
   <i type="int" name="IALGO">    38</i>
   <i type="int" name="IWAVPR">    10</i>
   <i type="int" name="NBANDS">     6</i>
   <i name="NELECT">      4.00000000</i>
   <i type="int" name="TURBO">     0</i>
   <i type="int" name="IRESTART">     0</i>
   <i type="int" name="NREBOOT">     0</i>
   <i type="int" name="NMIN">     0</i>
   <i name="EREF">      0.00000000</i>
   <separator name="electronic smearing" >
    <i type="int" name="ISMEAR">     0</i>
    <i name="SIGMA">      0.01000000</i>
    <i name="KSPACING">      0.50000000</i>
    <i type="logical" name="KGAMMA"> T  </i>
   </separator>
   <separator name="electronic projectors" >
    <i type="logical" name="LREAL"> F  </i>
    <v name="ROPT">      0.00000000</v>
    <i type="int" name="LMAXPAW">  -100</i>
    <i type="int" name="LMAXMIX">     2</i>
    <i type="logical" name="NLSPLINE"> F  </i>
   </separator>
   <separator name="electronic startup" >
    <i type="int" name="ISTART">     1</i>
    <i type="int" name="ICHARG">    11</i>
    <i type="int" name="INIWAV">     1</i>
   </separator>
   <separator name="electronic spin" >
    <i type="int" name="ISPIN">     1</i>
    <i type="logical" name="LNONCOLLINEAR"> F  </i>
    <v name="MAGMOM">      1.00000000</v>
    <i name="NUPDOWN">     -1.00000000</i>
    <i type="logical" name="LSORBIT"> F  </i>
    <v name="SAXIS">      0.00000000      0.00000000      1.00000000</v>
    <i type="logical" name="LSPIRAL"> F  </i>
    <v name="QSPIRAL">      0.00000000      0.00000000      0.00000000</v>
    <i type="logical" name="LZEROZ"> F  </i>
   </separator>
   <separator name="electronic exchange-correlation" >
    <i type="logical" name="LASPH"> F  </i>
    <i type="logical" name="LMETAGGA"> F  </i>
   </separator>
   <separator name="electronic convergence" >
    <i type="int" name="NELM">    60</i>
    <i type="int" name="NELMDL">     0</i>
    <i type="int" name="NELMIN">     2</i>
    <i name="ENINI">    240.00000000</i>
    <separator name="electronic convergence detail" >
     <i type="logical" name="LDIAG"> T  </i>
     <i type="logical" name="LSUBROT"> F  </i>
     <i name="WEIMIN">      0.00000000</i>
     <i name="EBREAK">      0.00000417</i>
     <i name="DEPER">      0.30000000</i>
     <i type="int" name="NRMM">     4</i>
     <i name="TIME">      0.40000000</i>
    </separator>
   </separator>
   <separator name="electronic mixer" >
    <i name="AMIX">      0.40000000</i>
    <i name="BMIX">      1.00000000</i>
    <i name="AMIN">      0.10000000</i>
    <i name="AMIX_MAG">      1.60000000</i>
    <i name="BMIX_MAG">      1.00000000</i>
    <separator name="electronic mixer details" >
     <i type="int" name="IMIX">     4</i>
     <i type="logical" name="MIXFIRST"> F  </i>
     <i type="int" name="MAXMIX">   -45</i>
     <i name="WC">    100.00000000</i>
     <i type="int" name="INIMIX">     1</i>
     <i type="int" name="MIXPRE">     1</i>
     <i type="int" name="MREMOVE">     5</i>
    </separator>
   </separator>
   <separator name="electronic dipolcorrection" >
    <i type="logical" name="LDIPOL"> F  </i>
    <i type="logical" name="LMONO"> F  </i>
    <i type="int" name="IDIPOL">     0</i>
    <i name="EPSILON">      1.00000000</i>
    <v name="DIPOL">   -100.00000000   -100.00000000   -100.00000000</v>
    <i name="EFIELD">      0.00000000</i>
   </separator>
  </separator>
  <separator name="grids" >
   <i type="int" name="NGX">    10</i>
   <i type="int" name="NGY">    10</i>
   <i type="int" name="NGZ">    10</i>
   <i type="int" name="NGXF">    20</i>
   <i type="int" name="NGYF">    20</i>
   <i type="int" name="NGZF">    20</i>
   <i type="logical" name="ADDGRID"> F  </i>
  </separator>
  <separator name="ionic" >
   <i type="int" name="NSW">     0</i>
   <i type="int" name="IBRION">    -1</i>
   <i type="int" name="ISIF">     2</i>
   <i name="PSTRESS">      0.00000000</i>
   <i name="EDIFFG">      0.00100000</i>
   <i type="int" name="NFREE">     0</i>
   <i name="POTIM">      0.50000000</i>
   <i name="SMASS">     -3.00000000</i>
   <i name="SCALEE">      1.00000000</i>
  </separator>
  <separator name="ionic md" >
   <i name="TEBEG">      0.00010000</i>
   <i name="TEEND">      0.00010000</i>
   <i type="int" name="NBLOCK">     1</i>
   <i type="int" name="KBLOCK">     1</i>
   <i type="int" name="NPACO">   256</i>
   <i name="APACO">     16.00000000</i>
  </separator>
  <separator name="symmetry" >
   <i type="int" name="ISYM">     2</i>
   <i name="SYMPREC">      0.00001000</i>
  </separator>
  <separator name="dos" >
   <i type="logical" name="LORBIT"> F  </i>
   <v name="RWIGS">     -1.00000000</v>
   <i type="int" name="NEDOS">   301</i>
   <i name="EMIN">     10.00000000</i>
   <i name="EMAX">    -10.00000000</i>
   <i name="EFERMI">      0.00000000</i>
  </separator>
  <separator name="writing" >
   <i type="int" name="NWRITE">     2</i>
   <i type="logical" name="LWAVE"> T  </i>
   <i type="logical" name="LCHARG"> T  </i>
   <i type="logical" name="LPARD"> F  </i>
   <i type="logical" name="LVTOT"> F  </i>
   <i type="logical" name="LVHAR"> F  </i>
   <i type="logical" name="LELF"> F  </i>
   <i type="logical" name="LOPTICS"> F  </i>
   <v name="STM">      0.00000000      0.00000000      0.00000000      0.00000000      0.00000000      0.00000000      0.00000000</v>
  </separator>
  <separator name="performance" >
   <i type="int" name="NPAR">     1</i>
   <i type="int" name="NSIM">     4</i>
   <i type="int" name="NBLK">    -1</i>
   <i type="logical" name="LPLANE"> T  </i>
   <i type="logical" name="LSCALAPACK"> T  </i>
   <i type="logical" name="LSCAAWARE"> F  </i>
   <i type="logical" name="LSCALU"> F  </i>
   <i type="logical" name="LASYNC"> F  </i>
   <i type="logical" name="LORBITALREAL"> F  </i>
  </separator>
  <separator name="miscellaneous" >
   <i type="int" name="IDIOT">     3</i>
   <i type="logical" name="LMUSIC"> F  </i>
   <v name="POMASS">     28.08500000</v>
   <v name="DARWINR">      0.00000000</v>
   <v name="DARWINV">      1.00000000</v>
   <i type="logical" name="LCORR"> T  </i>
  </separator>
  <i type="logical" name="GGA_COMPAT"> T  </i>
  <i type="logical" name="LBERRY"> F  </i>
  <i type="int" name="ICORELEVEL">     0</i>
  <i type="logical" name="LDAU"> F  </i>
  <i type="int" name="I_CONSTRAINED_M">     0</i>
  <separator name="electronic exchange-correlation" >
   <i type="string" name="GGA">--</i>
   <i type="int" name="VOSKOWN">     0</i>
   <i type="logical" name="LHFCALC"> F  </i>
   <i type="string" name="PRECFOCK"></i>
   <i type="logical" name="LSYMGRAD"> F  </i>
   <i type="logical" name="LHFONE"> F  </i>
   <i type="logical" name="LRHFCALC"> F  </i>
   <i type="logical" name="LTHOMAS"> F  </i>
   <i type="logical" name="LMODELHF"> F  </i>
   <i name="ENCUT4O">     -1.00000000</i>
   <i type="int" name="EXXOEP">     0</i>
   <i type="int" name="FOURORBIT">     0</i>
   <i name="AEXX">      0.00000000</i>
   <i name="HFALPHA">      0.00000000</i>
   <i name="MCALPHA">      0.00000000</i>
   <i name="ALDAX">      1.00000000</i>
   <i name="AGGAX">      1.00000000</i>
   <i name="ALDAC">      1.00000000</i>
   <i name="AGGAC">      1.00000000</i>
   <i type="int" name="NKREDX">     1</i>
   <i type="int" name="NKREDY">     1</i>
   <i type="int" name="NKREDZ">     1</i>
   <i type="logical" name="SHIFTRED"> F  </i>
   <i type="logical" name="ODDONLY"> F  </i>
   <i type="logical" name="EVENONLY"> F  </i>
   <i type="int" name="LMAXFOCK">     0</i>
   <i type="int" name="NMAXFOCKAE">     0</i>
   <i type="logical" name="LFOCKAEDFT"> F  </i>
   <i name="HFSCREEN">      0.00000000</i>
   <i name="HFSCREENC">      0.00000000</i>
   <i type="int" name="NBANDSGWLOW">     0</i>
  </separator>
  <separator name="vdW DFT" >
   <i type="logical" name="LUSE_VDW"> F  </i>
   <i name="Zab_VDW">     -0.84910000</i>
   <i name="PARAM1">      0.12340000</i>
   <i name="PARAM2">      1.00000000</i>
   <i name="PARAM3">      0.00000000</i>
  </separator>
  <separator name="model GW" >
   <i type="int" name="MODEL_GW">     0</i>
   <i name="MODEL_EPS0">      8.89785000</i>
   <i name="MODEL_ALPHA">      1.00000000</i>
  </separator>
  <separator name="linear response parameters" >
   <i type="logical" name="LEPSILON"> F  </i>
   <i type="logical" name="LRPA"> F  </i>
   <i type="logical" name="LNABLA"> F  </i>
   <i type="logical" name="LVEL"> F  </i>
   <i type="int" name="KINTER">     0</i>
   <i name="CSHIFT">      0.10000000</i>
   <i name="OMEGAMAX">     -1.00000000</i>
   <i name="DEG_THRESHOLD">      0.00200000</i>
  </separator>
  <separator name="orbital magnetization" >
   <i type="logical" name="NUCIND"> F  </i>
   <v name="MAGPOS">      0.00000000      0.00000000      0.00000000</v>
   <i type="logical" name="LNICSALL"> T  </i>
   <i type="logical" name="ORBITALMAG"> F  </i>
   <i type="logical" name="LMAGBLOCH"> F  </i>
   <i type="logical" name="LCHIMAG"> F  </i>
   <i type="logical" name="LGAUGE"> T  </i>
   <i type="int" name="MAGATOM">     0</i>
   <v name="MAGDIPOL">      0.00000000      0.00000000      0.00000000</v>
   <v name="AVECCONST">      0.00000000      0.00000000      0.00000000</v>
  </separator>
  <separator name="response functions" >
   <i type="logical" name="LADDER"> F  </i>
   <i type="logical" name="LFXC"> F  </i>
   <i type="logical" name="LHARTREE"> T  </i>
   <i type="int" name="IBSE">     0</i>
   <v type="int" name="KPOINT">    -1     0     0     0</v>
   <i type="logical" name="LTCTE"> F  </i>
   <i type="logical" name="LTETE"> F  </i>
   <i type="logical" name="LTRIPLET"> F  </i>
   <i type="logical" name="LFXCEPS"> F  </i>
   <i type="logical" name="LFXHEG"> F  </i>
   <i type="int" name="NATURALO">     0</i>
   <i type="logical" name="L2ORDER"> F  </i>
   <i type="logical" name="LUSEW"> F  </i>
   <i name="ENCUTGW">     -2.00000000</i>
   <i name="ENCUTGWSOFT">     -2.00000000</i>
   <i name="ENCUTLF">     -1.00000000</i>
   <i type="int" name="LMAXMP2">    -1</i>
   <i name="SCISSOR">      0.00000000</i>
   <i type="int" name="NOMEGA">     0</i>
   <i type="int" name="NOMEGAR">     0</i>
   <i type="int" name="NBANDSGW">    -1</i>
   <i type="int" name="NBANDSO">    -1</i>
   <i type="int" name="NBANDSV">    -1</i>
   <i type="int" name="NELM">     1</i>
   <i type="int" name="NELMHF">     1</i>
   <i type="int" name="DIM">     3</i>
   <i type="int" name="ANTIRES">     0</i>
   <i name="OMEGAMAX">    -30.00000000</i>
   <i name="OMEGAMIN">    -30.00000000</i>
   <i name="OMEGATL">   -200.00000000</i>
   <i type="int" name="OMEGAGRID">     0</i>
   <i name="CSHIFT">     -0.10000000</i>
   <i type="logical" name="SELFENERGY"> F  </i>
   <i type="logical" name="LSPECTRAL"> F  </i>
   <i type="logical" name="LSPECTRALGW"> F  </i>
   <i type="logical" name="LSINGLES"> F  </i>
   <i type="logical" name="LFERMIGW"> F  </i>
   <i type="logical" name="ODDONLYGW"> F  </i>
   <i type="logical" name="EVENONLYGW"> F  </i>
   <i type="int" name="NKREDLFX">     1</i>
   <i type="int" name="NKREDLFY">     1</i>
   <i type="int" name="NKREDLFZ">     1</i>
   <i type="int" name="MAXMEM">  1800</i>
   <i type="int" name="TELESCOPE">     0</i>
   <i type="int" name="TAUPAR">     1</i>
   <i type="int" name="OMEGAPAR">    -1</i>
   <i name="LAMBDA">      1.00000000</i>
  </separator>
  <separator name="External order field" >
   <i name="OFIELD_KAPPA">      0.00000000</i>
   <v name="OFIELD_K">      0.00000000      0.00000000      0.00000000</v>
   <i name="OFIELD_Q6_NEAR">      0.00000000</i>
   <i name="OFIELD_Q6_FAR">      0.00000000</i>
   <i name="OFIELD_A">      0.00000000</i>
  </separator>
 </parameters>
 <atominfo>
  <atoms>       1 </atoms>
  <types>       1 </types>
  <array name="atoms" >
   <dimension dim="1">ion</dimension>
   <field type="string">element</field>
   <field type="int">atomtype</field>
   <set>
    <rc><c>Si</c><c>   1</c></rc>
   </set>
  </array>
  <array name="atomtypes" >
   <dimension dim="1">type</dimension>
   <field type="int">atomspertype</field>
   <field type="string">element</field>
   <field>mass</field>
   <field>valence</field>
   <field type="string">pseudopotential</field>
   <set>
    <rc><c>   1</c><c>Si</c><c>     28.08500000</c><c>      4.00000000</c><c>  PAW_PBE Si 05Jan2001                  </c></rc>
   </set>
  </array>
 </atominfo>
 <structure name="initialpos" >
  <crystal>
   <varray name="basis" >
    <v>       1.95000000       1.95000000       0.00000000 </v>
    <v>       0.00000000       1.95000000       1.95000000 </v>
    <v>       1.95000000       0.00000000       1.95000000 </v>
   </varray>
   <i name="volume">     14.82975000 </i>
   <varray name="rec_basis" >
    <v>       0.25641026       0.25641026      -0.25641026 </v>
    <v>      -0.25641026       0.25641026       0.25641026 </v>
    <v>       0.25641026      -0.25641026       0.25641026 </v>
   </varray>
  </crystal>
  <varray name="positions" >
   <v>       0.00000000       0.00000000       0.00000000 </v>
  </varray>
 </structure>
 <calculation>
  <scstep>
   <time name="dav">    0.63    0.63</time>
   <time name="total">    0.64    0.64</time>
   <energy>
    <i name="alphaZ">      2.26997291 </i>
    <i name="ewald">   -135.42777035 </i>
    <i name="hartreedc">     -0.49049251 </i>
    <i name="XCdc">     -8.81686508 </i>
    <i name="pawpsdc">    343.57821399 </i>
    <i name="pawaedc">   -325.99296740 </i>
    <i name="eentropy">     -0.00000134 </i>
    <i name="bandstr">     16.65718224 </i>
    <i name="atom">    103.06077658 </i>
    <i name="e_fr_energy">     -5.16195096 </i>
    <i name="e_wo_entrp">     -5.16194962 </i>
    <i name="e_0_energy">     -5.16195029 </i>
   </energy>
  </scstep>
  <scstep>
   <time name="dav">    0.43    0.43</time>
   <time name="total">    0.43    0.43</time>
   <energy>
    <i name="e_fr_energy">     -5.25574485 </i>
    <i name="e_wo_entrp">     -5.25574080 </i>
    <i name="e_0_energy">     -5.25574282 </i>
   </energy>
  </scstep>
  <scstep>
   <time name="dav">    0.47    0.47</time>
   <time name="total">    0.48    0.48</time>
   <energy>
    <i name="e_fr_energy">     -5.25586817 </i>
    <i name="e_wo_entrp">     -5.25586361 </i>
    <i name="e_0_energy">     -5.25586589 </i>
   </energy>
  </scstep>
  <scstep>
   <time name="dav">    0.36    0.36</time>
   <time name="total">    0.37    0.37</time>
   <energy>
    <i name="alphaZ">      2.26997291 </i>
    <i name="ewald">   -135.42777035 </i>
    <i name="hartreedc">     -0.49049251 </i>
    <i name="XCdc">     -8.81686508 </i>
    <i name="pawpsdc">    343.57821399 </i>
    <i name="pawaedc">   -325.99296740 </i>
    <i name="eentropy">     -0.00000456 </i>
    <i name="bandstr">     16.56326807 </i>
    <i name="atom">    103.06077658 </i>
    <i name="e_fr_energy">     -5.25586835 </i>
    <i name="e_wo_entrp">     -5.25586379 </i>
    <i name="e_0_energy">     -5.25586607 </i>
   </energy>
  </scstep>
  <structure>
   <crystal>
    <varray name="basis" >
     <v>       1.95000000       1.95000000       0.00000000 </v>
     <v>       0.00000000       1.95000000       1.95000000 </v>
     <v>       1.95000000       0.00000000       1.95000000 </v>
    </varray>
    <i name="volume">     14.82975000 </i>
    <varray name="rec_basis" >
     <v>       0.25641026       0.25641026      -0.25641026 </v>
     <v>      -0.25641026       0.25641026       0.25641026 </v>
     <v>       0.25641026      -0.25641026       0.25641026 </v>
    </varray>
   </crystal>
   <varray name="positions" >
    <v>       0.00000000       0.00000000       0.00000000 </v>
   </varray>
  </structure>
  <varray name="forces" >
   <v>       0.00000000       0.00000000      -0.00000000 </v>
  </varray>
  <varray name="stress" >
   <v>     -27.94636765       0.00000000       0.00000000 </v>
   <v>      -0.00000000     -27.94636765      -0.00000000 </v>
   <v>       0.00000000       0.00000000     -27.94636765 </v>
  </varray>
  <energy>
   <i name="e_fr_energy">     -5.25586835 </i>
   <i name="e_wo_entrp">     -5.25586607 </i>
   <i name="e_0_energy">     -0.00000456 </i>
  </energy>
  <time name="totalsc">    2.27    2.27</time>
  <eigenvalues>
   <array>
    <dimension dim="1">band</dimension>
    <dimension dim="2">kpoint</dimension>
    <dimension dim="3">spin</dimension>
    <field>eigene</field>
    <field>occ</field>
    <set>
     <set comment="spin 1">
      <set comment="kpoint 1">
       <r>    2.3130    1.0000 </r>
       <r>    3.0569    1.0000 </r>
       <r>   18.1896    0.0000 </r>
       <r>   18.1896    0.0000 </r>
       <r>   20.7339    0.0000 </r>
       <r>   20.7339    0.0000 </r>
      </set>
      <set comment="kpoint 2">
       <r>    2.2882    1.0000 </r>
       <r>    3.0831    1.0000 </r>
       <r>   18.1895    0.0000 </r>
       <r>   18.1895    0.0000 </r>
       <r>   20.7352    0.0000 </r>
       <r>   20.7352    0.0000 </r>
      </set>
      <set comment="kpoint 3">
       <r>    2.2219    1.0000 </r>
       <r>    3.1533    1.0000 </r>
       <r>   18.1891    0.0000 </r>
       <r>   18.1891    0.0000 </r>
       <r>   20.7392    0.0000 </r>
       <r>   20.7392    0.0000 </r>
      </set>
      <set comment="kpoint 4">
       <r>    2.1297    1.0000 </r>
       <r>    3.2521    1.0000 </r>
       <r>   18.1886    0.0000 </r>
       <r>   18.1886    0.0000 </r>
       <r>   20.7459    0.0000 </r>
       <r>   20.7459    0.0000 </r>
      </set>
      <set comment="kpoint 5">
       <r>    2.0229    1.0000 </r>
       <r>    3.3681    1.0000 </r>
       <r>   18.1880    0.0000 </r>
       <r>   18.1880    0.0000 </r>
       <r>   20.7553    0.0000 </r>
       <r>   20.7553    0.0000 </r>
      </set>
      <set comment="kpoint 6">
       <r>    1.9084    1.0000 </r>
       <r>    3.4945    1.0000 </r>
       <r>   18.1871    0.0000 </r>
       <r>   18.1871    0.0000 </r>
       <r>   20.7672    0.0000 </r>
       <r>   20.7672    0.0000 </r>
      </set>
      <set comment="kpoint 7">
       <r>    1.7895    1.0000 </r>
       <r>    3.6278    1.0000 </r>
       <r>   18.1861    0.0000 </r>
       <r>   18.1861    0.0000 </r>
       <r>   20.7818    0.0000 </r>
       <r>   20.7818    0.0000 </r>
      </set>
      <set comment="kpoint 8">
       <r>    1.6685    1.0000 </r>
       <r>    3.7659    1.0000 </r>
       <r>   18.1850    0.0000 </r>
       <r>   18.1850    0.0000 </r>
       <r>   20.7990    0.0000 </r>
       <r>   20.8014    0.0000 </r>
      </set>
      <set comment="kpoint 9">
       <r>    1.5459    1.0000 </r>
       <r>    3.9077    1.0000 </r>
       <r>   18.1837    0.0000 </r>
       <r>   18.1837    0.0000 </r>
       <r>   20.8185    0.0000 </r>
       <r>   20.8185    0.0000 </r>
      </set>
      <set comment="kpoint 10">
       <r>    1.4235    1.0000 </r>
       <r>    4.0525    1.0000 </r>
       <r>   18.1824    0.0000 </r>
       <r>   18.1824    0.0000 </r>
       <r>   20.8407    0.0000 </r>
       <r>   20.8407    0.0000 </r>
      </set>
      <set comment="kpoint 11">
       <r>    1.3012    1.0000 </r>
       <r>    4.1997    1.0000 </r>
       <r>   18.1811    0.0000 </r>
       <r>   18.1811    0.0000 </r>
       <r>   20.8654    0.0000 </r>
       <r>   20.8655    0.0000 </r>
      </set>
      <set comment="kpoint 12">
       <r>    1.1794    1.0000 </r>
       <r>    4.3492    1.0000 </r>
       <r>   18.1798    0.0000 </r>
       <r>   18.1798    0.0000 </r>
       <r>   20.8926    0.0000 </r>
       <r>   20.8926    0.0000 </r>
      </set>
      <set comment="kpoint 13">
       <r>    1.0582    1.0000 </r>
       <r>    4.5006    1.0000 </r>
       <r>   18.1785    0.0000 </r>
       <r>   18.1785    0.0000 </r>
       <r>   20.9221    0.0000 </r>
       <r>   20.9221    0.0000 </r>
      </set>
      <set comment="kpoint 14">
       <r>    0.9379    1.0000 </r>
       <r>    4.6538    1.0000 </r>
       <r>   18.1774    0.0000 </r>
       <r>   18.1774    0.0000 </r>
       <r>   20.9539    0.0000 </r>
       <r>   20.9539    0.0000 </r>
      </set>
      <set comment="kpoint 15">
       <r>    0.8184    1.0000 </r>
       <r>    4.8087    1.0000 </r>
       <r>   18.1764    0.0000 </r>
       <r>   18.1764    0.0000 </r>
       <r>   20.9881    0.0000 </r>
       <r>   20.9881    0.0000 </r>
      </set>
      <set comment="kpoint 16">
       <r>    0.7000    1.0000 </r>
       <r>    4.9652    1.0000 </r>
       <r>   18.1756    0.0000 </r>
       <r>   18.1756    0.0000 </r>
       <r>   21.0244    0.0000 </r>
       <r>   21.0244    0.0000 </r>
      </set>
      <set comment="kpoint 17">
       <r>    0.5827    1.0000 </r>
       <r>    5.1232    1.0000 </r>
       <r>   18.1750    0.0000 </r>
       <r>   18.1750    0.0000 </r>
       <r>   21.0630    0.0000 </r>
       <r>   21.0630    0.0000 </r>
      </set>
      <set comment="kpoint 18">
       <r>    0.4665    1.0000 </r>
       <r>    5.2827    1.0000 </r>
       <r>   18.1747    0.0000 </r>
       <r>   18.1747    0.0000 </r>
       <r>   21.1037    0.0000 </r>
       <r>   21.1037    0.0000 </r>
      </set>
      <set comment="kpoint 19">
       <r>    0.3514    1.0000 </r>
       <r>    5.4437    1.0000 </r>
       <r>   18.1747    0.0000 </r>
       <r>   18.1747    0.0000 </r>
       <r>   21.1465    0.0000 </r>
       <r>   21.1465    0.0000 </r>
      </set>
      <set comment="kpoint 20">
       <r>    0.2376    1.0000 </r>
       <r>    5.6061    1.0000 </r>
       <r>   18.1751    0.0000 </r>
       <r>   18.1751    0.0000 </r>
       <r>   21.1913    0.0000 </r>
       <r>   21.1913    0.0000 </r>
      </set>
      <set comment="kpoint 21">
       <r>    0.1250    1.0000 </r>
       <r>    5.7699    1.0000 </r>
       <r>   18.1759    0.0000 </r>
       <r>   18.1759    0.0000 </r>
       <r>   21.2381    0.0000 </r>
       <r>   21.2381    0.0000 </r>
      </set>
      <set comment="kpoint 22">
       <r>    0.0136    1.0000 </r>
       <r>    5.9350    1.0000 </r>
       <r>   18.1771    0.0000 </r>
       <r>   18.1771    0.0000 </r>
       <r>   21.2868    0.0000 </r>
       <r>   21.2868    0.0000 </r>
      </set>
      <set comment="kpoint 23">
       <r>   -0.0965    1.0000 </r>
       <r>    6.1014    1.0000 </r>
       <r>   18.1787    0.0000 </r>
       <r>   18.1787    0.0000 </r>
       <r>   21.3374    0.0000 </r>
       <r>   21.3374    0.0000 </r>
      </set>
      <set comment="kpoint 24">
       <r>   -0.2053    1.0000 </r>
       <r>    6.2692    1.0000 </r>
       <r>   18.1809    0.0000 </r>
       <r>   18.1809    0.0000 </r>
       <r>   21.3898    0.0000 </r>
       <r>   21.3898    0.0000 </r>
      </set>
      <set comment="kpoint 25">
       <r>   -0.3128    1.0000 </r>
       <r>    6.4383    1.0000 </r>
       <r>   18.1837    0.0000 </r>
       <r>   18.1837    0.0000 </r>
       <r>   21.4440    0.0000 </r>
       <r>   21.4440    0.0000 </r>
      </set>
      <set comment="kpoint 26">
       <r>   -0.4190    1.0000 </r>
       <r>    6.6086    1.0000 </r>
       <r>   18.1870    0.0000 </r>
       <r>   18.1870    0.0000 </r>
       <r>   21.4999    0.0000 </r>
       <r>   21.4999    0.0000 </r>
      </set>
      <set comment="kpoint 27">
       <r>   -0.5239    1.0000 </r>
       <r>    6.7802    1.0000 </r>
       <r>   18.1910    0.0000 </r>
       <r>   18.1910    0.0000 </r>
       <r>   21.5575    0.0000 </r>
       <r>   21.5575    0.0000 </r>
      </set>
      <set comment="kpoint 28">
       <r>   -0.6274    1.0000 </r>
       <r>    6.9531    1.0000 </r>
       <r>   18.1956    0.0000 </r>
       <r>   18.1956    0.0000 </r>
       <r>   21.6166    0.0000 </r>
       <r>   21.6166    0.0000 </r>
      </set>
      <set comment="kpoint 29">
       <r>   -0.7296    1.0000 </r>
       <r>    7.1272    1.0000 </r>
       <r>   18.2009    0.0000 </r>
       <r>   18.2009    0.0000 </r>
       <r>   21.6774    0.0000 </r>
       <r>   21.6774    0.0000 </r>
      </set>
      <set comment="kpoint 30">
       <r>   -0.8305    1.0000 </r>
       <r>    7.3026    1.0000 </r>
       <r>   18.2069    0.0000 </r>
       <r>   18.2069    0.0000 </r>
       <r>   21.7396    0.0000 </r>
       <r>   21.7396    0.0000 </r>
      </set>
      <set comment="kpoint 31">
       <r>   -0.9308    1.0000 </r>
       <r>    7.4784    1.0000 </r>
       <r>   18.2135    0.0000 </r>
       <r>   18.2135    0.0000 </r>
       <r>   21.8032    0.0000 </r>
       <r>   21.8032    0.0000 </r>
      </set>
      <set comment="kpoint 32">
       <r>   -1.0290    1.0000 </r>
       <r>    7.6562    1.0000 </r>
       <r>   18.2210    0.0000 </r>
       <r>   18.2210    0.0000 </r>
       <r>   21.8683    0.0000 </r>
       <r>   21.8683    0.0000 </r>
      </set>
      <set comment="kpoint 33">
       <r>   -1.1258    1.0000 </r>
       <r>    7.8351    1.0000 </r>
       <r>   18.2293    0.0000 </r>
       <r>   18.2293    0.0000 </r>
       <r>   21.9347    0.0000 </r>
       <r>   21.9347    0.0000 </r>
      </set>
      <set comment="kpoint 34">
       <r>   -1.2212    1.0000 </r>
       <r>    8.0152    1.0000 </r>
       <r>   18.2384    0.0000 </r>
       <r>   18.2384    0.0000 </r>
       <r>   22.0024    0.0000 </r>
       <r>   22.0024    0.0000 </r>
      </set>
      <set comment="kpoint 35">
       <r>   -1.3162    1.0000 </r>
       <r>    8.1959    1.0000 </r>
       <r>   18.2477    0.0000 </r>
       <r>   18.2477    0.0000 </r>
       <r>   22.0673    0.0000 </r>
       <r>   22.0674    0.0000 </r>
      </set>
      <set comment="kpoint 36">
       <r>   -1.4089    1.0000 </r>
       <r>    8.3783    1.0000 </r>
       <r>   18.2585    0.0000 </r>
       <r>   18.2585    0.0000 </r>
       <r>   22.1373    0.0000 </r>
       <r>   22.1374    0.0000 </r>
      </set>
      <set comment="kpoint 37">
       <r>   -1.5002    1.0000 </r>
       <r>    8.5619    1.0000 </r>
       <r>   18.2702    0.0000 </r>
       <r>   18.2702    0.0000 </r>
       <r>   22.2084    0.0000 </r>
       <r>   22.2086    0.0000 </r>
      </set>
      <set comment="kpoint 38">
       <r>   -1.5901    1.0000 </r>
       <r>    8.7467    1.0000 </r>
       <r>   18.2827    0.0000 </r>
       <r>   18.2827    0.0000 </r>
       <r>   22.2805    0.0000 </r>
       <r>   22.2830    0.0000 </r>
      </set>
      <set comment="kpoint 39">
       <r>   -1.6786    1.0000 </r>
       <r>    8.9325    1.0000 </r>
       <r>   18.2962    0.0000 </r>
       <r>   18.2962    0.0000 </r>
       <r>   22.3535    0.0000 </r>
       <r>   22.3562    0.0000 </r>
      </set>
      <set comment="kpoint 40">
       <r>   -1.7657    1.0000 </r>
       <r>    9.1195    1.0000 </r>
       <r>   18.3106    0.0000 </r>
       <r>   18.3106    0.0000 </r>
       <r>   22.4274    0.0000 </r>
       <r>   22.4282    0.0000 </r>
      </set>
      <set comment="kpoint 41">
       <r>   -1.8514    1.0000 </r>
       <r>    9.3064    1.0000 </r>
       <r>   18.3223    0.0000 </r>
       <r>   18.3223    0.0000 </r>
       <r>   22.5059    0.0000 </r>
       <r>   22.5072    0.0000 </r>
      </set>
      <set comment="kpoint 42">
       <r>   -1.9357    1.0000 </r>
       <r>    9.4955    1.0000 </r>
       <r>   18.3386    0.0000 </r>
       <r>   18.3386    0.0000 </r>
       <r>   22.5808    0.0000 </r>
       <r>   22.5835    0.0000 </r>
      </set>
      <set comment="kpoint 43">
       <r>   -2.0187    1.0000 </r>
       <r>    9.6858    1.0000 </r>
       <r>   18.3558    0.0000 </r>
       <r>   18.3558    0.0000 </r>
       <r>   22.6563    0.0000 </r>
       <r>   22.6624    0.0000 </r>
      </set>
      <set comment="kpoint 44">
       <r>   -2.1002    1.0000 </r>
       <r>    9.8771    1.0000 </r>
       <r>   18.3740    0.0000 </r>
       <r>   18.3740    0.0000 </r>
       <r>   22.7321    0.0000 </r>
       <r>   22.7453    0.0000 </r>
      </set>
      <set comment="kpoint 45">
       <r>   -2.1803    1.0000 </r>
       <r>   10.0695    1.0000 </r>
       <r>   18.3932    0.0000 </r>
       <r>   18.3932    0.0000 </r>
       <r>   22.7565    0.0000 </r>
       <r>   22.8082    0.0000 </r>
      </set>
      <set comment="kpoint 46">
       <r>   -2.2591    1.0000 </r>
       <r>   10.2629    1.0000 </r>
       <r>   18.4135    0.0000 </r>
       <r>   18.4135    0.0000 </r>
       <r>   22.7609    0.0000 </r>
       <r>   22.8845    0.0000 </r>
      </set>
      <set comment="kpoint 47">
       <r>   -2.3364    1.0000 </r>
       <r>   10.4573    1.0000 </r>
       <r>   18.4347    0.0000 </r>
       <r>   18.4347    0.0000 </r>
       <r>   22.7660    0.0000 </r>
       <r>   22.9606    0.0000 </r>
      </set>
      <set comment="kpoint 48">
       <r>   -2.4123    1.0000 </r>
       <r>   10.6528    1.0000 </r>
       <r>   18.4570    0.0000 </r>
       <r>   18.4570    0.0000 </r>
       <r>   22.7713    0.0000 </r>
       <r>   23.0365    0.0000 </r>
      </set>
      <set comment="kpoint 49">
       <r>   -2.4868    1.0000 </r>
       <r>   10.8493    1.0000 </r>
       <r>   18.4803    0.0000 </r>
       <r>   18.4803    0.0000 </r>
       <r>   22.7769    0.0000 </r>
       <r>   23.1119    0.0000 </r>
      </set>
      <set comment="kpoint 50">
       <r>   -2.5598    1.0000 </r>
       <r>   11.0468    1.0000 </r>
       <r>   18.5047    0.0000 </r>
       <r>   18.5047    0.0000 </r>
       <r>   22.7829    0.0000 </r>
       <r>   23.1865    0.0000 </r>
      </set>
      <set comment="kpoint 51">
       <r>   -2.6315    1.0000 </r>
       <r>   11.2452    1.0000 </r>
       <r>   18.5301    0.0000 </r>
       <r>   18.5301    0.0000 </r>
       <r>   22.7892    0.0000 </r>
       <r>   23.2602    0.0000 </r>
      </set>
      <set comment="kpoint 52">
       <r>   -2.7017    1.0000 </r>
       <r>   11.4446    1.0000 </r>
       <r>   18.5565    0.0000 </r>
       <r>   18.5565    0.0000 </r>
       <r>   22.7961    0.0000 </r>
       <r>   23.3325    0.0000 </r>
      </set>
      <set comment="kpoint 53">
       <r>   -2.7705    1.0000 </r>
       <r>   11.6450    1.0000 </r>
       <r>   18.5841    0.0000 </r>
       <r>   18.5841    0.0000 </r>
       <r>   22.8033    0.0000 </r>
       <r>   23.4030    0.0000 </r>
      </set>
      <set comment="kpoint 54">
       <r>   -2.8379    1.0000 </r>
       <r>   11.8462    1.0000 </r>
       <r>   18.6127    0.0000 </r>
       <r>   18.6127    0.0000 </r>
       <r>   22.8110    0.0000 </r>
       <r>   23.4715    0.0000 </r>
      </set>
      <set comment="kpoint 55">
       <r>   -2.9039    1.0000 </r>
       <r>   12.0484    1.0000 </r>
       <r>   18.6424    0.0000 </r>
       <r>   18.6424    0.0000 </r>
       <r>   22.8189    0.0000 </r>
       <r>   23.5373    0.0000 </r>
      </set>
      <set comment="kpoint 56">
       <r>   -2.9684    1.0000 </r>
       <r>   12.2514    1.0000 </r>
       <r>   18.6731    0.0000 </r>
       <r>   18.6731    0.0000 </r>
       <r>   22.8272    0.0000 </r>
       <r>   23.5999    0.0000 </r>
      </set>
      <set comment="kpoint 57">
       <r>   -3.0315    1.0000 </r>
       <r>   12.4553    1.0000 </r>
       <r>   18.7050    0.0000 </r>
       <r>   18.7050    0.0000 </r>
       <r>   22.8356    0.0000 </r>
       <r>   23.6588    0.0000 </r>
      </set>
      <set comment="kpoint 58">
       <r>   -3.0932    1.0000 </r>
       <r>   12.6600    1.0000 </r>
       <r>   18.7379    0.0000 </r>
       <r>   18.7379    0.0000 </r>
       <r>   22.8443    0.0000 </r>
       <r>   23.7132    0.0000 </r>
      </set>
      <set comment="kpoint 59">
       <r>   -3.1535    1.0000 </r>
       <r>   12.8655    0.0278 </r>
       <r>   18.7719    0.0000 </r>
       <r>   18.7719    0.0000 </r>
       <r>   22.8530    0.0000 </r>
       <r>   23.7625    0.0000 </r>
      </set>
      <set comment="kpoint 60">
       <r>   -3.2123    1.0000 </r>
       <r>   13.0735    0.0000 </r>
       <r>   18.8070    0.0000 </r>
       <r>   18.8070    0.0000 </r>
       <r>   22.8640    0.0000 </r>
       <r>   23.8115    0.0000 </r>
      </set>
      <set comment="kpoint 61">
       <r>   -3.2697    1.0000 </r>
       <r>   13.2806    0.0000 </r>
       <r>   18.8432    0.0000 </r>
       <r>   18.8432    0.0000 </r>
       <r>   22.8727    0.0000 </r>
       <r>   23.8475    0.0000 </r>
      </set>
      <set comment="kpoint 62">
       <r>   -3.3256    1.0000 </r>
       <r>   13.4884    0.0000 </r>
       <r>   18.8805    0.0000 </r>
       <r>   18.8805    0.0000 </r>
       <r>   22.8813    0.0000 </r>
       <r>   23.8760    0.0000 </r>
      </set>
      <set comment="kpoint 63">
       <r>   -3.3801    1.0000 </r>
       <r>   13.6968    0.0000 </r>
       <r>   18.9189    0.0000 </r>
       <r>   18.9189    0.0000 </r>
       <r>   22.8898    0.0000 </r>
       <r>   23.8963    0.0000 </r>
      </set>
      <set comment="kpoint 64">
       <r>   -3.4332    1.0000 </r>
       <r>   13.9059    0.0000 </r>
       <r>   18.9583    0.0000 </r>
       <r>   18.9583    0.0000 </r>
       <r>   22.8981    0.0000 </r>
       <r>   23.9078    0.0000 </r>
      </set>
      <set comment="kpoint 65">
       <r>   -3.4849    1.0000 </r>
       <r>   14.1157    0.0000 </r>
       <r>   18.9988    0.0000 </r>
       <r>   18.9988    0.0000 </r>
       <r>   22.9059    0.0000 </r>
       <r>   23.9102    0.0000 </r>
      </set>
      <set comment="kpoint 66">
       <r>   -3.5351    1.0000 </r>
       <r>   14.3259    0.0000 </r>
       <r>   19.0405    0.0000 </r>
       <r>   19.0405    0.0000 </r>
       <r>   22.9135    0.0000 </r>
       <r>   23.9032    0.0000 </r>
      </set>
      <set comment="kpoint 67">
       <r>   -3.5838    1.0000 </r>
       <r>   14.5368    0.0000 </r>
       <r>   19.0831    0.0000 </r>
       <r>   19.0831    0.0000 </r>
       <r>   22.9206    0.0000 </r>
       <r>   23.8869    0.0000 </r>
      </set>
      <set comment="kpoint 68">
       <r>   -3.6311    1.0000 </r>
       <r>   14.7480    0.0000 </r>
       <r>   19.1269    0.0000 </r>
       <r>   19.1269    0.0000 </r>
       <r>   22.9272    0.0000 </r>
       <r>   23.8616    0.0000 </r>
      </set>
      <set comment="kpoint 69">
       <r>   -3.6770    1.0000 </r>
       <r>   14.9598    0.0000 </r>
       <r>   19.1717    0.0000 </r>
       <r>   19.1717    0.0000 </r>
       <r>   22.9332    0.0000 </r>
       <r>   23.8276    0.0000 </r>
      </set>
      <set comment="kpoint 70">
       <r>   -3.7214    1.0000 </r>
       <r>   15.1776    0.0000 </r>
       <r>   19.2175    0.0000 </r>
       <r>   19.2175    0.0000 </r>
       <r>   22.9452    0.0000 </r>
       <r>   23.7858    0.0000 </r>
      </set>
      <set comment="kpoint 71">
       <r>   -3.7644    1.0000 </r>
       <r>   15.3901    0.0000 </r>
       <r>   19.2644    0.0000 </r>
       <r>   19.2644    0.0000 </r>
       <r>   22.9493    0.0000 </r>
       <r>   23.7367    0.0000 </r>
      </set>
      <set comment="kpoint 72">
       <r>   -3.8059    1.0000 </r>
       <r>   15.6027    0.0000 </r>
       <r>   19.3124    0.0000 </r>
       <r>   19.3124    0.0000 </r>
       <r>   22.9487    0.0000 </r>
       <r>   23.6812    0.0000 </r>
      </set>
      <set comment="kpoint 73">
       <r>   -3.8460    1.0000 </r>
       <r>   15.8156    0.0000 </r>
       <r>   19.3613    0.0000 </r>
       <r>   19.3613    0.0000 </r>
       <r>   22.9495    0.0000 </r>
       <r>   23.6201    0.0000 </r>
      </set>
      <set comment="kpoint 74">
       <r>   -3.8846    1.0000 </r>
       <r>   16.0285    0.0000 </r>
       <r>   19.4112    0.0000 </r>
       <r>   19.4112    0.0000 </r>
       <r>   22.9488    0.0000 </r>
       <r>   23.5541    0.0000 </r>
      </set>
      <set comment="kpoint 75">
       <r>   -3.9218    1.0000 </r>
       <r>   16.2415    0.0000 </r>
       <r>   19.4621    0.0000 </r>
       <r>   19.4621    0.0000 </r>
       <r>   22.9464    0.0000 </r>
       <r>   23.4841    0.0000 </r>
      </set>
      <set comment="kpoint 76">
       <r>   -3.9575    1.0000 </r>
       <r>   16.4544    0.0000 </r>
       <r>   19.5140    0.0000 </r>
       <r>   19.5140    0.0000 </r>
       <r>   22.9421    0.0000 </r>
       <r>   23.4106    0.0000 </r>
      </set>
      <set comment="kpoint 77">
       <r>   -3.9918    1.0000 </r>
       <r>   16.6671    0.0000 </r>
       <r>   19.5668    0.0000 </r>
       <r>   19.5668    0.0000 </r>
       <r>   22.9354    0.0000 </r>
       <r>   23.3343    0.0000 </r>
      </set>
      <set comment="kpoint 78">
       <r>   -4.0246    1.0000 </r>
       <r>   16.8795    0.0000 </r>
       <r>   19.6204    0.0000 </r>
       <r>   19.6204    0.0000 </r>
       <r>   22.9265    0.0000 </r>
       <r>   23.2557    0.0000 </r>
      </set>
      <set comment="kpoint 79">
       <r>   -4.0560    1.0000 </r>
       <r>   17.0914    0.0000 </r>
       <r>   19.6750    0.0000 </r>
       <r>   19.6750    0.0000 </r>
       <r>   22.9150    0.0000 </r>
       <r>   23.1754    0.0000 </r>
      </set>
      <set comment="kpoint 80">
       <r>   -4.0859    1.0000 </r>
       <r>   17.3029    0.0000 </r>
       <r>   19.7303    0.0000 </r>
       <r>   19.7303    0.0000 </r>
       <r>   22.9009    0.0000 </r>
       <r>   23.0938    0.0000 </r>
      </set>
      <set comment="kpoint 81">
       <r>   -4.1144    1.0000 </r>
       <r>   17.5136    0.0000 </r>
       <r>   19.7864    0.0000 </r>
       <r>   19.7864    0.0000 </r>
       <r>   22.8938    0.0000 </r>
       <r>   23.0112    0.0000 </r>
      </set>
      <set comment="kpoint 82">
       <r>   -4.1414    1.0000 </r>
       <r>   17.7234    0.0000 </r>
       <r>   19.8432    0.0000 </r>
       <r>   19.8432    0.0000 </r>
       <r>   22.8711    0.0000 </r>
       <r>   22.9281    0.0000 </r>
      </set>
      <set comment="kpoint 83">
       <r>   -4.1669    1.0000 </r>
       <r>   17.9322    0.0000 </r>
       <r>   19.9006    0.0000 </r>
       <r>   19.9006    0.0000 </r>
       <r>   22.8363    0.0000 </r>
       <r>   22.8448    0.0000 </r>
      </set>
      <set comment="kpoint 84">
       <r>   -4.1910    1.0000 </r>
       <r>   18.1396    0.0000 </r>
       <r>   19.9586    0.0000 </r>
       <r>   19.9586    0.0000 </r>
       <r>   22.7615    0.0000 </r>
       <r>   22.7792    0.0000 </r>
      </set>
      <set comment="kpoint 85">
       <r>   -4.2136    1.0000 </r>
       <r>   18.3456    0.0000 </r>
       <r>   20.0170    0.0000 </r>
       <r>   20.0170    0.0000 </r>
       <r>   22.6787    0.0000 </r>
       <r>   22.6942    0.0000 </r>
      </set>
      <set comment="kpoint 86">
       <r>   -4.2348    1.0000 </r>
       <r>   18.5497    0.0000 </r>
       <r>   20.0757    0.0000 </r>
       <r>   20.0757    0.0000 </r>
       <r>   22.5965    0.0000 </r>
       <r>   22.5980    0.0000 </r>
      </set>
      <set comment="kpoint 87">
       <r>   -4.2546    1.0000 </r>
       <r>   18.7517    0.0000 </r>
       <r>   20.1345    0.0000 </r>
       <r>   20.1345    0.0000 </r>
       <r>   22.5154    0.0000 </r>
       <r>   22.5162    0.0000 </r>
      </set>
      <set comment="kpoint 88">
       <r>   -4.2728    1.0000 </r>
       <r>   18.9511    0.0000 </r>
       <r>   20.1933    0.0000 </r>
       <r>   20.1933    0.0000 </r>
       <r>   22.4355    0.0000 </r>
       <r>   22.4362    0.0000 </r>
      </set>
      <set comment="kpoint 89">
       <r>   -4.2896    1.0000 </r>
       <r>   19.1476    0.0000 </r>
       <r>   20.2517    0.0000 </r>
       <r>   20.2517    0.0000 </r>
       <r>   22.3574    0.0000 </r>
       <r>   22.3579    0.0000 </r>
      </set>
      <set comment="kpoint 90">
       <r>   -4.3050    1.0000 </r>
       <r>   19.3405    0.0000 </r>
       <r>   20.3095    0.0000 </r>
       <r>   20.3095    0.0000 </r>
       <r>   22.2813    0.0000 </r>
       <r>   22.2818    0.0000 </r>
      </set>
      <set comment="kpoint 91">
       <r>   -4.3189    1.0000 </r>
       <r>   19.5292    0.0000 </r>
       <r>   20.3664    0.0000 </r>
       <r>   20.3664    0.0000 </r>
       <r>   22.2078    0.0000 </r>
       <r>   22.2082    0.0000 </r>
      </set>
      <set comment="kpoint 92">
       <r>   -4.3313    1.0000 </r>
       <r>   19.7129    0.0000 </r>
       <r>   20.4216    0.0000 </r>
       <r>   20.4216    0.0000 </r>
       <r>   22.1374    0.0000 </r>
       <r>   22.1378    0.0000 </r>
      </set>
      <set comment="kpoint 93">
       <r>   -4.3422    1.0000 </r>
       <r>   19.8904    0.0000 </r>
       <r>   20.4748    0.0000 </r>
       <r>   20.4748    0.0000 </r>
       <r>   22.0709    0.0000 </r>
       <r>   22.0709    0.0000 </r>
      </set>
      <set comment="kpoint 94">
       <r>   -4.3519    1.0000 </r>
       <r>   20.0592    0.0000 </r>
       <r>   20.5238    0.0000 </r>
       <r>   20.5238    0.0000 </r>
       <r>   21.9763    0.0000 </r>
       <r>   21.9763    0.0000 </r>
      </set>
      <set comment="kpoint 95">
       <r>   -4.3600    1.0000 </r>
       <r>   20.2192    0.0000 </r>
       <r>   20.5704    0.0000 </r>
       <r>   20.5704    0.0000 </r>
       <r>   21.9196    0.0000 </r>
       <r>   21.9197    0.0000 </r>
      </set>
      <set comment="kpoint 96">
       <r>   -4.3665    1.0000 </r>
       <r>   20.3661    0.0000 </r>
       <r>   20.6117    0.0000 </r>
       <r>   20.6117    0.0000 </r>
       <r>   21.8700    0.0000 </r>
       <r>   21.8701    0.0000 </r>
      </set>
      <set comment="kpoint 97">
       <r>   -4.3717    1.0000 </r>
       <r>   20.4944    0.0000 </r>
[...]
        <r>  0.0000  0.0000  0.0000  0.3117  0.0000  0.0000  0.0000  0.0000  0.0000 </r>
       </set>
       <set comment="band 3">
        <r>  0.0562  0.2034  0.2034  0.0000  0.0000  0.0000  0.0000  0.0000  0.0000 </r>
       </set>
       <set comment="band 4">
        <r>  0.0000  0.3519  0.3519  0.0000  0.0000  0.0000  0.0000  0.0000  0.0000 </r>
       </set>
       <set comment="band 5">
        <r>  0.0000  0.0000  0.0000  0.0000  0.0000  0.0000  0.0000  0.0000  0.0000 </r>
       </set>
       <set comment="band 6">
        <r>  0.0000  0.0000  0.0000  0.3441  0.0000  0.0000  0.0000  0.0000  0.0000 </r>
       </set>
      </set>
      <set comment="kpoint 379">
       <set comment="band 1">
        <r>  0.3738  0.0061  0.0061  0.0000  0.0000  0.0000  0.0000  0.0000  0.0000 </r>
       </set>
       <set comment="band 2">
        <r>  0.0000  0.0000  0.0000  0.3149  0.0000  0.0000  0.0000  0.0000  0.0000 </r>
       </set>
       <set comment="band 3">
        <r>  0.0523  0.2053  0.2053  0.0000  0.0000  0.0000  0.0000  0.0000  0.0000 </r>
       </set>
       <set comment="band 4">
        <r>  0.0000  0.3511  0.3511  0.0000  0.0000  0.0000  0.0000  0.0000  0.0000 </r>
       </set>
       <set comment="band 5">
        <r>  0.0000  0.0000  0.0000  0.0000  0.0000  0.0000  0.0000  0.0000  0.0000 </r>
       </set>
       <set comment="band 6">
        <r>  0.0000  0.0000  0.0000  0.3426  0.0000  0.0000  0.0000  0.0000  0.0000 </r>
       </set>
      </set>
      <set comment="kpoint 380">
       <set comment="band 1">
        <r>  0.3748  0.0056  0.0056  0.0000  0.0000  0.0000  0.0000  0.0000  0.0000 </r>
       </set>
       <set comment="band 2">
        <r>  0.0000  0.0000  0.0000  0.3186  0.0000  0.0000  0.0000  0.0000  0.0000 </r>
       </set>
       <set comment="band 3">
        <r>  0.0485  0.2072  0.2072  0.0000  0.0000  0.0000  0.0000  0.0000  0.0000 </r>
       </set>
       <set comment="band 4">
        <r>  0.0000  0.3503  0.3503  0.0000  0.0000  0.0000  0.0000  0.0000  0.0000 </r>
       </set>
       <set comment="band 5">
        <r>  0.0000  0.0000  0.0000  0.0000  0.0000  0.0000  0.0000  0.0000  0.0000 </r>
       </set>
       <set comment="band 6">
        <r>  0.0000  0.0000  0.0000  0.3407  0.0000  0.0000  0.0000  0.0000  0.0000 </r>
       </set>
      </set>
      <set comment="kpoint 381">
       <set comment="band 1">
        <r>  0.3757  0.0050  0.0050  0.0000  0.0000  0.0000  0.0000  0.0000  0.0000 </r>
       </set>
       <set comment="band 2">
        <r>  0.0000  0.0000  0.0000  0.3228  0.0000  0.0000  0.0000  0.0000  0.0000 </r>
       </set>
       <set comment="band 3">
        <r>  0.0447  0.2091  0.2091  0.0000  0.0000  0.0000  0.0000  0.0000  0.0000 </r>
       </set>
       <set comment="band 4">
        <r>  0.0000  0.3494  0.3494  0.0000  0.0000  0.0000  0.0000  0.0000  0.0000 </r>
       </set>
       <set comment="band 5">
        <r>  0.0000  0.0000  0.0000  0.0000  0.0000  0.0000  0.0000  0.0000  0.0000 </r>
       </set>
       <set comment="band 6">
        <r>  0.0000  0.0000  0.0000  0.3383  0.0000  0.0000  0.0000  0.0000  0.0000 </r>
       </set>
      </set>
      <set comment="kpoint 382">
       <set comment="band 1">
        <r>  0.3766  0.0045  0.0045  0.0000  0.0000  0.0000  0.0000  0.0000  0.0000 </r>
       </set>
       <set comment="band 2">
        <r>  0.0000  0.0000  0.0000  0.3275  0.0000  0.0000  0.0000  0.0000  0.0000 </r>
       </set>
       <set comment="band 3">
        <r>  0.0410  0.2111  0.2111  0.0000  0.0000  0.0000  0.0000  0.0000  0.0000 </r>
       </set>
       <set comment="band 4">
        <r>  0.0000  0.3485  0.3485  0.0000  0.0000  0.0000  0.0000  0.0000  0.0000 </r>
       </set>
       <set comment="band 5">
        <r>  0.0000  0.0000  0.0000  0.0000  0.0000  0.0000  0.0000  0.0000  0.0000 </r>
       </set>
       <set comment="band 6">
        <r>  0.0000  0.0000  0.0000  0.3355  0.0000  0.0000  0.0000  0.0000  0.0000 </r>
       </set>
      </set>
      <set comment="kpoint 383">
       <set comment="band 1">
        <r>  0.3775  0.0040  0.0040  0.0000  0.0000  0.0000  0.0000  0.0000  0.0000 </r>
       </set>
       <set comment="band 2">
        <r>  0.0000  0.0000  0.0000  0.3328  0.0000  0.0000  0.0000  0.0000  0.0000 </r>
       </set>
       <set comment="band 3">
        <r>  0.0374  0.2132  0.2132  0.0000  0.0000  0.0000  0.0000  0.0000  0.0000 </r>
       </set>
       <set comment="band 4">
        <r>  0.0000  0.3476  0.3476  0.0000  0.0000  0.0000  0.0000  0.0000  0.0000 </r>
       </set>
       <set comment="band 5">
        <r>  0.0000  0.0000  0.0000  0.0000  0.0000  0.0000  0.0000  0.0000  0.0000 </r>
       </set>
       <set comment="band 6">
        <r>  0.0000  0.0000  0.0000  0.3320  0.0000  0.0000  0.0000  0.0000  0.0000 </r>
       </set>
      </set>
      <set comment="kpoint 384">
       <set comment="band 1">
        <r>  0.3783  0.0036  0.0036  0.0000  0.0000  0.0000  0.0000  0.0000  0.0000 </r>
       </set>
       <set comment="band 2">
        <r>  0.0000  0.0000  0.0000  0.3388  0.0000  0.0000  0.0000  0.0000  0.0000 </r>
       </set>
       <set comment="band 3">
        <r>  0.0340  0.2153  0.2153  0.0000  0.0000  0.0000  0.0000  0.0000  0.0000 </r>
       </set>
       <set comment="band 4">
        <r>  0.0000  0.3467  0.3467  0.0000  0.0000  0.0000  0.0000  0.0000  0.0000 </r>
       </set>
       <set comment="band 5">
        <r>  0.0000  0.0000  0.0000  0.0000  0.0000  0.0000  0.0000  0.0000  0.0000 </r>
       </set>
       <set comment="band 6">
        <r>  0.0000  0.0000  0.0000  0.3278  0.0000  0.0000  0.0000  0.0000  0.0000 </r>
       </set>
      </set>
      <set comment="kpoint 385">
       <set comment="band 1">
        <r>  0.3791  0.0032  0.0032  0.0000  0.0000  0.0000  0.0000  0.0000  0.0000 </r>
       </set>
       <set comment="band 2">
        <r>  0.0000  0.0000  0.0000  0.3456  0.0000  0.0000  0.0000  0.0000  0.0000 </r>
       </set>
       <set comment="band 3">
        <r>  0.0306  0.2175  0.2175  0.0000  0.0000  0.0000  0.0000  0.0000  0.0000 </r>
       </set>
       <set comment="band 4">
        <r>  0.0000  0.3459  0.3459  0.0000  0.0000  0.0000  0.0000  0.0000  0.0000 </r>
       </set>
       <set comment="band 5">
        <r>  0.0000  0.0000  0.0000  0.0000  0.0000  0.0000  0.0000  0.0000  0.0000 </r>
       </set>
       <set comment="band 6">
        <r>  0.0000  0.0000  0.0000  0.3228  0.0000  0.0000  0.0000  0.0000  0.0000 </r>
       </set>
      </set>
      <set comment="kpoint 386">
       <set comment="band 1">
        <r>  0.3798  0.0028  0.0028  0.0000  0.0000  0.0000  0.0000  0.0000  0.0000 </r>
       </set>
       <set comment="band 2">
        <r>  0.0000  0.0000  0.0000  0.3533  0.0000  0.0000  0.0000  0.0000  0.0000 </r>
       </set>
       <set comment="band 3">
        <r>  0.0273  0.2199  0.2199  0.0000  0.0000  0.0000  0.0000  0.0000  0.0000 </r>
       </set>
       <set comment="band 4">
        <r>  0.0000  0.3451  0.3451  0.0000  0.0000  0.0000  0.0000  0.0000  0.0000 </r>
       </set>
       <set comment="band 5">
        <r>  0.0000  0.0000  0.0000  0.0000  0.0000  0.0000  0.0000  0.0000  0.0000 </r>
       </set>
       <set comment="band 6">
        <r>  0.0000  0.0000  0.0000  0.3169  0.0000  0.0000  0.0000  0.0000  0.0000 </r>
       </set>
      </set>
      <set comment="kpoint 387">
       <set comment="band 1">
        <r>  0.3805  0.0024  0.0024  0.0000  0.0000  0.0000  0.0000  0.0000  0.0000 </r>
       </set>
       <set comment="band 2">
        <r>  0.0000  0.0000  0.0000  0.3620  0.0000  0.0000  0.0000  0.0000  0.0000 </r>
       </set>
       <set comment="band 3">
        <r>  0.0242  0.2224  0.2224  0.0000  0.0000  0.0000  0.0000  0.0000  0.0000 </r>
       </set>
       <set comment="band 4">
        <r>  0.0000  0.3443  0.3443  0.0000  0.0000  0.0000  0.0000  0.0000  0.0000 </r>
       </set>
       <set comment="band 5">
        <r>  0.0000  0.0000  0.0000  0.0000  0.0000  0.0000  0.0000  0.0000  0.0000 </r>
       </set>
       <set comment="band 6">
        <r>  0.0000  0.0000  0.0000  0.3098  0.0000  0.0000  0.0000  0.0000  0.0000 </r>
       </set>
      </set>
      <set comment="kpoint 388">
       <set comment="band 1">
        <r>  0.3811  0.0020  0.0020  0.0000  0.0000  0.0000  0.0000  0.0000  0.0000 </r>
       </set>
       <set comment="band 2">
        <r>  0.0000  0.0000  0.0000  0.3720  0.0000  0.0000  0.0000  0.0000  0.0000 </r>
       </set>
       <set comment="band 3">
        <r>  0.0212  0.2253  0.2253  0.0000  0.0000  0.0000  0.0000  0.0000  0.0000 </r>
       </set>
       <set comment="band 4">
        <r>  0.0000  0.3436  0.3436  0.0000  0.0000  0.0000  0.0000  0.0000  0.0000 </r>
       </set>
       <set comment="band 5">
        <r>  0.0000  0.0000  0.0000  0.0000  0.0000  0.0000  0.0000  0.0000  0.0000 </r>
       </set>
       <set comment="band 6">
        <r>  0.0000  0.0000  0.0000  0.3014  0.0000  0.0000  0.0000  0.0000  0.0000 </r>
       </set>
      </set>
      <set comment="kpoint 389">
       <set comment="band 1">
        <r>  0.3816  0.0017  0.0017  0.0000  0.0000  0.0000  0.0000  0.0000  0.0000 </r>
       </set>
       <set comment="band 2">
        <r>  0.0000  0.0000  0.0000  0.3834  0.0000  0.0000  0.0000  0.0000  0.0000 </r>
       </set>
       <set comment="band 3">
        <r>  0.0184  0.2285  0.2285  0.0000  0.0000  0.0000  0.0000  0.0000  0.0000 </r>
       </set>
       <set comment="band 4">
        <r>  0.0000  0.3430  0.3430  0.0000  0.0000  0.0000  0.0000  0.0000  0.0000 </r>
       </set>
       <set comment="band 5">
        <r>  0.0000  0.0000  0.0000  0.0000  0.0000  0.0000  0.0000  0.0000  0.0000 </r>
       </set>
       <set comment="band 6">
        <r>  0.0000  0.0000  0.0000  0.2913  0.0000  0.0000  0.0000  0.0000  0.0000 </r>
       </set>
      </set>
      <set comment="kpoint 390">
       <set comment="band 1">
        <r>  0.3822  0.0014  0.0014  0.0000  0.0000  0.0000  0.0000  0.0000  0.0000 </r>
       </set>
       <set comment="band 2">
        <r>  0.0000  0.0000  0.0000  0.3966  0.0000  0.0000  0.0000  0.0000  0.0000 </r>
       </set>
       <set comment="band 3">
        <r>  0.0157  0.2322  0.2322  0.0000  0.0000  0.0000  0.0000  0.0000  0.0000 </r>
       </set>
       <set comment="band 4">
        <r>  0.0000  0.3424  0.3424  0.0000  0.0000  0.0000  0.0000  0.0000  0.0000 </r>
       </set>
       <set comment="band 5">
        <r>  0.0000  0.0000  0.0000  0.0000  0.0000  0.0000  0.0000  0.0000  0.0000 </r>
       </set>
       <set comment="band 6">
        <r>  0.0000  0.0000  0.0000  0.2794  0.0000  0.0000  0.0000  0.0000  0.0000 </r>
       </set>
      </set>
      <set comment="kpoint 391">
       <set comment="band 1">
        <r>  0.3826  0.0012  0.0012  0.0000  0.0000  0.0000  0.0000  0.0000  0.0000 </r>
       </set>
       <set comment="band 2">
        <r>  0.0000  0.0000  0.0000  0.4119  0.0000  0.0000  0.0000  0.0000  0.0000 </r>
       </set>
       <set comment="band 3">
        <r>  0.0132  0.2366  0.2366  0.0000  0.0000  0.0000  0.0000  0.0000  0.0000 </r>
       </set>
       <set comment="band 4">
        <r>  0.0000  0.3419  0.3419  0.0000  0.0000  0.0000  0.0000  0.0000  0.0000 </r>
       </set>
       <set comment="band 5">
        <r>  0.0000  0.0000  0.0000  0.0000  0.0000  0.0000  0.0000  0.0000  0.0000 </r>
       </set>
       <set comment="band 6">
        <r>  0.0000  0.0000  0.0000  0.2651  0.0000  0.0000  0.0000  0.0000  0.0000 </r>
       </set>
      </set>
      <set comment="kpoint 392">
       <set comment="band 1">
        <r>  0.3828  0.0009  0.0009  0.0000  0.0000  0.0000  0.0000  0.0000  0.0000 </r>
       </set>
       <set comment="band 2">
        <r>  0.0003  0.0061  0.0061  0.4189  0.0000  0.0000  0.0000  0.0000  0.0000 </r>
       </set>
       <set comment="band 3">
        <r>  0.0107  0.2344  0.2344  0.0110  0.0000  0.0000  0.0000  0.0000  0.0000 </r>
       </set>
       <set comment="band 4">
        <r>  0.0000  0.3406  0.3406  0.0000  0.0000  0.0000  0.0000  0.0000  0.0000 </r>
       </set>
       <set comment="band 5">
        <r>  0.0000  0.0000  0.0000  0.0000  0.0000  0.0000  0.0000  0.0000  0.0000 </r>
       </set>
       <set comment="band 6">
        <r>  0.0000  0.0000  0.0000  0.2472  0.0000  0.0000  0.0000  0.0000  0.0000 </r>
       </set>
      </set>
      <set comment="kpoint 393">
       <set comment="band 1">
        <r>  0.3831  0.0007  0.0007  0.0000  0.0000  0.0000  0.0000  0.0000  0.0000 </r>
       </set>
       <set comment="band 2">
        <r>  0.0088  0.2469  0.2469  0.0000  0.0000  0.0000  0.0000  0.0000  0.0000 </r>
       </set>
       <set comment="band 3">
        <r>  0.0000  0.0000  0.0000  0.4509  0.0000  0.0000  0.0000  0.0000  0.0000 </r>
       </set>
       <set comment="band 4">
        <r>  0.0000  0.3401  0.3401  0.0000  0.0000  0.0000  0.0000  0.0000  0.0000 </r>
       </set>
       <set comment="band 5">
        <r>  0.0000  0.0000  0.0000  0.0000  0.0000  0.0000  0.0000  0.0000  0.0000 </r>
       </set>
       <set comment="band 6">
        <r>  0.0000  0.0000  0.0000  0.2269  0.0000  0.0000  0.0000  0.0000  0.0000 </r>
       </set>
      </set>
      <set comment="kpoint 394">
       <set comment="band 1">
        <r>  0.3834  0.0005  0.0005  0.0000  0.0000  0.0000  0.0000  0.0000  0.0000 </r>
       </set>
       <set comment="band 2">
        <r>  0.0068  0.2549  0.2549  0.0000  0.0000  0.0000  0.0000  0.0000  0.0000 </r>
       </set>
       <set comment="band 3">
        <r>  0.0000  0.0000  0.0000  0.4759  0.0000  0.0000  0.0000  0.0000  0.0000 </r>
       </set>
       <set comment="band 4">
        <r>  0.0000  0.3398  0.3398  0.0000  0.0000  0.0000  0.0000  0.0000  0.0000 </r>
       </set>
       <set comment="band 5">
        <r>  0.0000  0.0000  0.0000  0.0000  0.0000  0.0000  0.0000  0.0000  0.0000 </r>
       </set>
       <set comment="band 6">
        <r>  0.0000  0.0000  0.0000  0.2024  0.0000  0.0000  0.0000  0.0000  0.0000 </r>
       </set>
      </set>
      <set comment="kpoint 395">
       <set comment="band 1">
        <r>  0.3837  0.0004  0.0004  0.0000  0.0000  0.0000  0.0000  0.0000  0.0000 </r>
       </set>
       <set comment="band 2">
        <r>  0.0050  0.2650  0.2650  0.0000  0.0000  0.0000  0.0000  0.0000  0.0000 </r>
       </set>
       <set comment="band 3">
        <r>  0.0000  0.0000  0.0000  0.5057  0.0000  0.0000  0.0000  0.0000  0.0000 </r>
       </set>
       <set comment="band 4">
        <r>  0.0000  0.3395  0.3395  0.0000  0.0000  0.0000  0.0000  0.0000  0.0000 </r>
       </set>
       <set comment="band 5">
        <r>  0.0000  0.0000  0.0000  0.0000  0.0000  0.0000  0.0000  0.0000  0.0000 </r>
       </set>
       <set comment="band 6">
        <r>  0.0000  0.0000  0.0000  0.1729  0.0000  0.0000  0.0000  0.0000  0.0000 </r>
       </set>
      </set>
      <set comment="kpoint 396">
       <set comment="band 1">
        <r>  0.3838  0.0002  0.0002  0.0000  0.0000  0.0000  0.0000  0.0000  0.0000 </r>
       </set>
       <set comment="band 2">
        <r>  0.0034  0.2779  0.2779  0.0000  0.0000  0.0000  0.0000  0.0000  0.0000 </r>
       </set>
       <set comment="band 3">
        <r>  0.0000  0.0000  0.0000  0.5407  0.0000  0.0000  0.0000  0.0000  0.0000 </r>
       </set>
       <set comment="band 4">
        <r>  0.0000  0.3392  0.3392  0.0000  0.0000  0.0000  0.0000  0.0000  0.0000 </r>
       </set>
       <set comment="band 5">
        <r>  0.0000  0.0000  0.0000  0.0000  0.0000  0.0000  0.0000  0.0000  0.0000 </r>
       </set>
       <set comment="band 6">
        <r>  0.0000  0.0000  0.0000  0.1374  0.0000  0.0000  0.0000  0.0000  0.0000 </r>
       </set>
      </set>
      <set comment="kpoint 397">
       <set comment="band 1">
        <r>  0.3840  0.0001  0.0001  0.0000  0.0000  0.0000  0.0000  0.0000  0.0000 </r>
       </set>
       <set comment="band 2">
        <r>  0.0021  0.2942  0.2942  0.0000  0.0000  0.0000  0.0000  0.0000  0.0000 </r>
       </set>
       <set comment="band 3">
        <r>  0.0000  0.0000  0.0000  0.5815  0.0000  0.0000  0.0000  0.0000  0.0000 </r>
       </set>
       <set comment="band 4">
        <r>  0.0000  0.3390  0.3390  0.0000  0.0000  0.0000  0.0000  0.0000  0.0000 </r>
       </set>
       <set comment="band 5">
        <r>  0.0000  0.0000  0.0000  0.0000  0.0000  0.0000  0.0000  0.0000  0.0000 </r>
       </set>
       <set comment="band 6">
        <r>  0.0000  0.0000  0.0000  0.0966  0.0000  0.0000  0.0000  0.0000  0.0000 </r>
       </set>
      </set>
      <set comment="kpoint 398">
       <set comment="band 1">
        <r>  0.3838  0.0001  0.0001  0.0000  0.0000  0.0000  0.0000  0.0000  0.0000 </r>
       </set>
       <set comment="band 2">
        <r>  0.0010  0.3133  0.3133  0.0001  0.0000  0.0000  0.0000  0.0000  0.0000 </r>
       </set>
       <set comment="band 3">
        <r>  0.0000  0.0000  0.0000  0.6246  0.0000  0.0000  0.0000  0.0000  0.0000 </r>
       </set>
       <set comment="band 4">
        <r>  0.0000  0.3389  0.3389  0.0000  0.0000  0.0000  0.0000  0.0000  0.0000 </r>
       </set>
       <set comment="band 5">
        <r>  0.0000  0.0000  0.0000  0.0000  0.0000  0.0000  0.0000  0.0000  0.0000 </r>
       </set>
       <set comment="band 6">
        <r>  0.0000  0.0000  0.0000  0.0528  0.0000  0.0000  0.0000  0.0000  0.0000 </r>
       </set>
      </set>
      <set comment="kpoint 399">
       <set comment="band 1">
        <r>  0.3839  0.0000  0.0000  0.0000  0.0000  0.0000  0.0000  0.0000  0.0000 </r>
       </set>
       <set comment="band 2">
        <r>  0.0003  0.3307  0.3307  0.0006  0.0000  0.0000  0.0000  0.0000  0.0000 </r>
       </set>
       <set comment="band 3">
        <r>  0.0000  0.0003  0.0003  0.6615  0.0000  0.0000  0.0000  0.0000  0.0000 </r>
       </set>
       <set comment="band 4">
        <r>  0.0000  0.3388  0.3388  0.0000  0.0000  0.0000  0.0000  0.0000  0.0000 </r>
       </set>
       <set comment="band 5">
        <r>  0.0000  0.0000  0.0000  0.0000  0.0000  0.0000  0.0000  0.0000  0.0000 </r>
       </set>
       <set comment="band 6">
        <r>  0.0000  0.0000  0.0000  0.0154  0.0000  0.0000  0.0000  0.0000  0.0000 </r>
       </set>
      </set>
      <set comment="kpoint 400">
       <set comment="band 1">
        <r>  0.3839  0.0000  0.0000  0.0000  0.0000  0.0000  0.0000  0.0000  0.0000 </r>
       </set>
       <set comment="band 2">
        <r>  0.0000  0.2265  0.2255  0.2255  0.0000  0.0000  0.0000  0.0000  0.0000 </r>
       </set>
       <set comment="band 3">
        <r>  0.0000  0.4510  0.1134  0.1131  0.0000  0.0000  0.0000  0.0000  0.0000 </r>
       </set>
       <set comment="band 4">
        <r>  0.0000  0.0000  0.3386  0.3389  0.0000  0.0000  0.0000  0.0000  0.0000 </r>
       </set>
       <set comment="band 5">
        <r>  0.0000  0.0000  0.0000  0.0000  0.0000  0.0000  0.0000  0.0000  0.0000 </r>
       </set>
       <set comment="band 6">
        <r>  0.0000  0.0000  0.0000  0.0000  0.0000  0.0000  0.0000  0.0000  0.0000 </r>
       </set>
      </set>
     </set>
    </set>
   </array>
  </projected>
 </calculation>
 <structure name="finalpos" >
  <crystal>
   <varray name="basis" >
    <v>       1.95000000       1.95000000       0.00000000 </v>
    <v>       0.00000000       1.95000000       1.95000000 </v>
    <v>       1.95000000       0.00000000       1.95000000 </v>
   </varray>
   <i name="volume">     14.82975000 </i>
   <varray name="rec_basis" >
    <v>       0.25641026       0.25641026      -0.25641026 </v>
    <v>      -0.25641026       0.25641026       0.25641026 </v>
    <v>       0.25641026      -0.25641026       0.25641026 </v>
   </varray>
  </crystal>
  <varray name="positions" >
   <v>       0.00000000       0.00000000       0.00000000 </v>
  </varray>
 </structure>
</modeling>
