fcc Si                                  
   4.30000000000000     
     0.500000    0.500000    0.000000
     0.000000    0.500000    0.500000
     0.500000    0.000000    0.500000
   Si
     1
Direct
  0.000000  0.000000  0.000000
 
   24   24   24
 -3.2530     -2.3628     -.21407E-01  2.9359      5.5425      7.1005      7.4157      6.7825      5.7642      4.8231    
  4.1069      3.6684      3.5219      3.6684      4.1069      4.8231      5.7642      6.7825      7.4157      7.1005    
  5.5425      2.9359     -.21407E-01 -2.3628     -2.3628     -.74972      1.8805      4.6104      6.6019      7.4210    
  7.1434      6.2268      5.2212      4.3916      3.8182      3.5292      3.5292      3.8181      4.3916      5.2212    
  6.2268      7.1435      7.4211      6.6022      4.6107      1.8807     -.74963     -2.3628     -.21407E-01  1.8805    
  4.2413      6.2429      7.3121      7.3210      6.5638      5.5505      4.6462      3.9641      3.5487      3.4102    
  3.5486      3.9641      4.6462      5.5505      6.5638      7.3211      7.3123      6.2432      4.2417      1.8809    
 -.21210E-01 -.74963      2.9359      4.6104      6.2429      7.2527      7.3812      6.7582      5.7839      4.8463    
  4.0900      3.5735      3.3150      3.3150      3.5735      4.0899      4.8462      5.7838      6.7582      7.3813    
  7.2530      6.2433      4.6109      2.9363      1.8809      1.8807      5.5425      6.6019      7.3121      7.3812    
  6.8204      5.9043      4.9734      4.1817      3.5965      3.2440      3.1272      3.2441      3.5965      4.1816    
  4.9733      5.9041      6.8203      7.3813      7.3123      6.6023      5.5429      4.6109      4.2417      4.6107    
  7.1005      7.4210      7.3210      6.7582      5.9043      5.0169      4.2297      3.6120      3.1966      2.9903    
  2.9903      3.1967      3.6121      4.2297      5.0169      5.9042      6.7581      7.3210      7.4210      7.1006    
  6.6023      6.2433      6.2432      6.6022      7.4157      7.1434      6.5638      5.7839      4.9734      4.2297    
  3.6174      3.1727      2.9070      2.8191      2.9071      3.1729      3.6176      4.2298      4.9734      5.7838    
  6.5637      7.1433      7.4156      7.4210      7.3123      7.2530      7.3123      7.4211      6.7825      6.2268    
  5.5505      4.8463      4.1817      3.6120      3.1727      2.8791      2.7332      2.7332      2.8791      3.1728    
  3.6122      4.1818      4.8464      5.5506      6.2268      6.7824      7.1433      7.3210      7.3813      7.3813    
  7.3211      7.1435      5.7642      5.2212      4.6462      4.0900      3.5965      3.1966      2.9070      2.7332    
  2.6754      2.7331      2.9070      3.1967      3.5966      4.0902      4.6465      5.2213      5.7642      6.2268    
  6.5637      6.7581      6.8203      6.7582      6.5638      6.2268      4.8231      4.3916      3.9641      3.5735    
  3.2440      2.9903      2.8191      2.7332      2.7331      2.8190      2.9901      3.2439      3.5736      3.9643    
  4.3919      4.8233      5.2213      5.5506      5.7838      5.9042      5.9041      5.7838      5.5505      5.2212    
  4.1069      3.8182      3.5487      3.3150      3.1272      2.9903      2.9071      2.8791      2.9070      2.9901    
  3.1269      3.3148      3.5485      3.8182      4.1070      4.3919      4.6465      4.8464      4.9734      5.0169    
  4.9733      4.8462      4.6462      4.3916      3.6684      3.5292      3.4102      3.3150      3.2441      3.1967    
  3.1729      3.1728      3.1967      3.2439      3.3148      3.4099      3.5290      3.6683      3.8182      3.9643    
  4.0902      4.1818      4.2298      4.2297      4.1816      4.0899      3.9641      3.8181      3.5219      3.5292    
  3.5486      3.5735      3.5965      3.6121      3.6176      3.6122      3.5966      3.5736      3.5485      3.5290    
  3.5216      3.5290      3.5485      3.5736      3.5966      3.6122      3.6176      3.6121      3.5965      3.5735    
  3.5486      3.5292      3.6684      3.8181      3.9641      4.0899      4.1816      4.2297      4.2298      4.1818    
  4.0902      3.9643      3.8182      3.6683      3.5290      3.4099      3.3148      3.2439      3.1967      3.1728    
  3.1729      3.1967      3.2441      3.3150      3.4102      3.5292      4.1069      4.3916      4.6462      4.8462    
  4.9733      5.0169      4.9734      4.8464      4.6465      4.3919      4.1070      3.8182      3.5485      3.3148    
  3.1269      2.9901      2.9070      2.8791      2.9071      2.9903      3.1272      3.3150      3.5487      3.8182    
  4.8231      5.2212      5.5505      5.7838      5.9041      5.9042      5.7838      5.5506      5.2213      4.8233    
  4.3919      3.9643      3.5736      3.2439      2.9901      2.8190      2.7331      2.7332      2.8191      2.9903    
  3.2440      3.5735      3.9641      4.3916      5.7642      6.2268      6.5638      6.7582      6.8203      6.7581    
  6.5637      6.2268      5.7642      5.2213      4.6465      4.0902      3.5966      3.1967      2.9070      2.7331    
  2.6754      2.7332      2.9070      3.1966      3.5965      4.0900      4.6462      5.2212      6.7825      7.1435    
  7.3211      7.3813      7.3813      7.3210      7.1433      6.7824      6.2268      5.5506      4.8464      4.1818    
  3.6122      3.1728      2.8791      2.7332      2.7332      2.8791      3.1727      3.6120      4.1817      4.8463    
  5.5505      6.2268      7.4157      7.4211      7.3123      7.2530      7.3123      7.4210      7.4156      7.1433    
  6.5637      5.7838      4.9734      4.2298      3.6176      3.1729      2.9071      2.8191      2.9070      3.1727    
  3.6174      4.2297      4.9734      5.7839      6.5638      7.1434      7.1005      6.6022      6.2432      6.2433    
  6.6023      7.1006      7.4210      7.3210      6.7581      5.9042      5.0169      4.2297      3.6121      3.1967    
  2.9903      2.9903      3.1966      3.6120      4.2297      5.0169      5.9043      6.7582      7.3210      7.4210    
  5.5425      4.6107      4.2417      4.6109      5.5429      6.6023      7.3123      7.3813      6.8203      5.9041    
  4.9733      4.1816      3.5965      3.2441      3.1272      3.2440      3.5965      4.1817      4.9734      5.9043    
  6.8204      7.3812      7.3121      6.6019      2.9359      1.8807      1.8809      2.9363      4.6109      6.2433    
  7.2530      7.3813      6.7582      5.7838      4.8462      4.0899      3.5735      3.3150      3.3150      3.5735    
  4.0900      4.8463      5.7839      6.7582      7.3812      7.2527      6.2429      4.6104     -.21407E-01 -.74963    
 -.21210E-01  1.8809      4.2417      6.2432      7.3123      7.3211      6.5638      5.5505      4.6462      3.9641    
  3.5486      3.4102      3.5487      3.9641      4.6462      5.5505      6.5638      7.3210      7.3121      6.2429    
  4.2413      1.8805     -2.3628     -2.3628     -.74963      1.8807      4.6107      6.6022      7.4211      7.1435    
  6.2268      5.2212      4.3916      3.8181      3.5292      3.5292      3.8182      4.3916      5.2212      6.2268    
  7.1434      7.4210      6.6019      4.6104      1.8805     -.74972     -2.3628     -.74972      1.8805      4.6104    
  6.6019      7.4210      7.1434      6.2268      5.2212      4.3916      3.8182      3.5292      3.5292      3.8181    
  4.3916      5.2212      6.2268      7.1435      7.4211      6.6022      4.6107      1.8807     -.74963     -2.3628    
 -.74972      1.2947      3.8481      6.0435      7.2675      7.3715      6.6506      5.6330      4.7157      4.0217    
  3.5984      3.4571      3.5983      4.0217      4.7156      5.6330      6.6506      7.3717      7.2678      6.0439    
  3.8485      1.2950     -.74958     -1.5306      1.8805      3.8481      5.8141      7.1178      7.4474      6.9184    
  5.9510      4.9885      4.2069      3.6712      3.4026      3.4026      3.6712      4.2068      4.9884      5.9509    
  6.9185      7.4477      7.1181      5.8146      3.8486      1.8809     0.65347     0.65333      4.6104      6.0435    
  7.1178      7.4596      7.0422      6.1501      5.1847      4.3544      3.7370      3.3641      3.2402      3.3641    
  3.7370      4.3543      5.1845      6.1500      7.0421      7.4597      7.1181      6.0440      4.6109      3.3975    
  2.9236      3.3972      6.6019      7.2675      7.4474      7.0422      6.2174      5.2870      4.4489      3.7861    
  3.3386      3.1159      3.1159      3.3386      3.7861      4.4488      5.2868      6.2172      7.0421      7.4475    
  7.2677      6.6022      5.7877      5.2395      5.2394      5.7875      7.4210      7.3715      6.9184      6.1501    
  5.2870      4.4814      3.8121      3.3238      3.0317      2.9350      3.0317      3.3239      3.8121      4.4814    
  5.2869      6.1500      6.9183      7.3715      7.4210      7.1706      6.8585      6.7218      6.8585      7.1705    
  7.1434      6.6506      5.9510      5.1847      4.4489      3.8121      3.3189      2.9891      2.8254      2.8255    
  2.9892      3.3191      3.8122      4.4490      5.1847      5.9509      6.6504      7.1433      7.3753      7.4120    
  7.3813      7.3814      7.4121      7.3754      6.2268      5.6330      4.9885      4.3544      3.7861      3.3238    
  2.9891      2.7888      2.7223      2.7888      2.9892      3.3239      3.7863      4.3546      4.9886      5.6331    
  6.2267      6.6964      6.9966      7.1456      7.1880      7.1457      6.9967      6.6965      5.2212      4.7157    
  4.2069      3.7370      3.3386      3.0317      2.8254      2.7223      2.7223      2.8254      3.0316      3.3386    
  3.7372      4.2071      4.7159      5.2213      5.6788      6.0496      6.3041      6.4301      6.4301      6.3041    
  6.0496      5.6787      4.3916      4.0217      3.6712      3.3641      3.1159      2.9350      2.8255      2.7888    
  2.8254      2.9348      3.1157      3.3640      3.6713      4.0218      4.3919      4.7509      5.0669      5.3117    
  5.4658      5.5182      5.4657      5.3116      5.0667      4.7507      3.8182      3.5984      3.4026      3.2402    
  3.1159      3.0317      2.9892      2.9892      3.0316      3.1157      3.2400      3.4023      3.5982      3.8182    
  4.0467      4.2632      4.4464      4.5783      4.6470      4.6469      4.5781      4.4461      4.2630      4.0465    
  3.5292      3.4571      3.4026      3.3641      3.3386      3.3239      3.3191      3.3239      3.3386      3.3640    
  3.4023      3.4568      3.5290      3.6160      3.7099      3.7987      3.8706      3.9170      3.9328      3.9168    
  3.8704      3.7985      3.7098      3.6162      3.5292      3.5983      3.6712      3.7370      3.7861      3.8121    
  3.8122      3.7863      3.7372      3.6713      3.5982      3.5290      3.4722      3.4316      3.4056      3.3903    
  3.3817      3.3777      3.3776      3.3816      3.3903      3.4057      3.4318      3.4725      3.8181      4.0217    
  4.2068      4.3543      4.4488      4.4814      4.4490      4.3546      4.2071      4.0218      3.8182      3.6160    
  3.4316      3.2748      3.1505      3.0605      3.0057      2.9874      3.0058      3.0606      3.1507      3.2751    
  3.4318      3.6162      4.3916      4.7156      4.9884      5.1845      5.2868      5.2869      5.1847      4.9886    
  4.7159      4.3919      4.0467      3.7099      3.4056      3.1505      2.9540      2.8211      2.7542      2.7542    
  2.8213      2.9543      3.1507      3.4057      3.7098      4.0465      5.2212      5.6330      5.9509      6.1500    
  6.2172      6.1500      5.9509      5.6331      5.2213      4.7509      4.2632      3.7987      3.3903      3.0605    
  2.8211      2.6769      2.6289      2.6770      2.8213      3.0606      3.3903      3.7985      4.2630      4.7507    
  6.2268      6.6506      6.9185      7.0421      7.0421      6.9183      6.6504      6.2267      5.6788      5.0669    
  4.4464      3.8706      3.3817      3.0057      2.7542      2.6289      2.6289      2.7542      3.0057      3.3816    
  3.8704      4.4462      5.0667      5.6787      7.1435      7.3717      7.4477      7.4597      7.4475      7.3715    
  7.1433      6.6964      6.0496      5.3117      4.5783      3.9170      3.3777      2.9874      2.7542      2.6770    
  2.7542      2.9873      3.3775      3.9168      4.5782      5.3117      6.0496      6.6965      7.4211      7.2678    
  7.1181      7.1181      7.2677      7.4210      7.3753      6.9966      6.3041      5.4658      4.6470      3.9328    
  3.3776      3.0058      2.8213      2.8213      3.0057      3.3775      3.9327      4.6470      5.4658      6.3042    
  6.9967      7.3754      6.6022      6.0439      5.8146      6.0440      6.6022      7.1706      7.4120      7.1456    
  6.4301      5.5182      4.6469      3.9168      3.3816      3.0606      2.9543      3.0606      3.3816      3.9168    
  4.6470      5.5183      6.4302      7.1457      7.4121      7.1705      4.6107      3.8485      3.8486      4.6109    
  5.7877      6.8585      7.3813      7.1880      6.4301      5.4657      4.5781      3.8704      3.3903      3.1507    
  3.1507      3.3903      3.8704      4.5782      5.4658      6.4302      7.1881      7.3813      6.8583      5.7875    
  1.8807      1.2950      1.8809      3.3975      5.2395      6.7218      7.3814      7.1457      6.3041      5.3116    
  4.4461      3.7985      3.4057      3.2751      3.4057      3.7985      4.4462      5.3117      6.3042      7.1457    
  7.3813      6.7215      5.2391      3.3972     -.74963     -.74958     0.65347      2.9236      5.2394      6.8585    
  7.4121      6.9967      6.0496      5.0667      4.2630      3.7098      3.4318      3.4318      3.7098      4.2630    
  5.0667      6.0496      6.9967      7.4121      6.8583      5.2391      2.9234     0.65333     -2.3628     -1.5306    
 0.65333      3.3972      5.7875      7.1705      7.3754      6.6965      5.6787      4.7507      4.0465      3.6162    
  3.4725      3.6162      4.0465      4.7507      5.6787      6.6965      7.3754      7.1705      5.7875      3.3972    
 0.65333     -1.5306     -.21411E-01  1.8805      4.2413      6.2429      7.3121      7.3210      6.5638      5.5505    
  4.6462      3.9641      3.5487      3.4102      3.5486      3.9641      4.6462      5.5505      6.5638      7.3211    
  7.3123      6.2432      4.2417      1.8809     -.21210E-01 -.74963      1.8805      3.8481      5.8141      7.1178    
  7.4474      6.9184      5.9510      4.9885      4.2069      3.6712      3.4026      3.4026      3.6712      4.2068    
  4.9884      5.9509      6.9185      7.4477      7.1181      5.8146      3.8486      1.8809     0.65347     0.65333    
  4.2413      5.8141      7.0257      7.4722      7.1125      6.2341      5.2578      4.4144      3.7859      3.4059    
  3.2796      3.4058      3.7859      4.4143      5.2576      6.2339      7.1124      7.4723      7.0260      5.8146    
  4.2418      2.9237      2.4110      2.9234      6.2429      7.1178      7.4722      7.1723      6.3784      5.4294    
  4.5654      3.8789      3.4143      3.1829      3.1829      3.4143      3.8789      4.5653      5.4292      6.3781    
  7.1721      7.4722      7.1180      6.2433      5.2395      4.5786      4.5784      5.2391      7.3121      7.4474    
  7.1125      6.3784      5.4883      4.6447      3.9391      3.4227      3.1133      3.0109      3.1133      3.4227    
  3.9391      4.6446      5.4881      6.3781      7.1123      7.4474      7.3121      6.8584      6.3880      6.1914    
  6.3879      6.8583      7.3210      6.9184      6.2341      5.4294      4.6447      3.9599      3.4275      3.0711    
  2.8943      2.8944      3.0712      3.4276      3.9599      4.6447      5.4293      6.2339      6.9182      7.3208    
  7.4119      7.3064      7.1868      7.1868      7.3065      7.4120      6.5638      5.9510      5.2578      4.5654    
  3.9391      3.4275      3.0569      2.8355      2.7622      2.8356      3.0571      3.4276      3.9392      4.5655    
  5.2578      5.9509      6.5635      6.9964      7.2254      7.3077      7.3231      7.3078      7.2257      6.9967    
  5.5505      4.9885      4.4144      3.8789      3.4227      3.0711      2.8355      2.7181      2.7181      2.8355    
  3.0712      3.4228      3.8791      4.4146      4.9886      5.5505      6.0495      6.4369      6.6827      6.7965    
  6.7965      6.6829      6.4370      6.0496      4.6462      4.2069      3.7859      3.4143      3.1133      2.8943    
  2.7622      2.7181      2.7621      2.8942      3.1132      3.4144      3.7861      4.2071      4.6464      5.0668    
  5.4313      5.7098      5.8831      5.9416      5.8831      5.7098      5.4312      5.0667      3.9641      3.6712    
  3.4059      3.1829      3.0109      2.8944      2.8356      2.8355      2.8942      3.0107      3.1827      3.4058    
  3.6712      3.9643      4.2632      4.5420      4.7750      4.9413      5.0275      5.0275      4.9412      4.7748    
  4.5418      4.2630      3.5487      3.4026      3.2796      3.1829      3.1133      3.0712      3.0571      3.0712    
  3.1132      3.1827      3.2793      3.4023      3.5485      3.7098      3.8729      4.0212      4.1389      4.2139    
  4.2396      4.2138      4.1386      4.0210      3.8728      3.7098      3.4102      3.4026      3.4058      3.4143    
  3.4227      3.4276      3.4276      3.4228      3.4144      3.4058      3.4023      3.4099      3.4315      3.4658    
  3.5063      3.5449      3.5742      3.5898      3.5897      3.5740      3.5447      3.5062      3.4659      3.4318    
  3.5486      3.6712      3.7859      3.8789      3.9391      3.9599      3.9392      3.8791      3.7861      3.6712    
  3.5485      3.4315      3.3300      3.2484      3.1867      3.1433      3.1173      3.1086      3.1173      3.1433    
  3.1868      3.2486      3.3303      3.4318      3.9641      4.2068      4.4143      4.5653      4.6446      4.6447    
  4.5655      4.4146      4.2071      3.9643      3.7098      3.4658      3.2484      3.0678      2.9290      2.8349    
  2.7873      2.7873      2.8350      2.9292      3.0680      3.2486      3.4659      3.7098      4.6462      4.9884    
  5.2576      5.4292      5.4881      5.4293      5.2578      4.9886      4.6464      4.2632      3.8729      3.5063    
  3.1867      2.9290      2.7415      2.6279      2.5899      2.6280      2.7416      2.9292      3.1868      3.5063    
  3.8728      4.2630      5.5505      5.9509      6.2339      6.3781      6.3781      6.2339      5.9509      5.5505    
  5.0668      4.5420      4.0212      3.5449      3.1433      2.8349      2.6279      2.5244      2.5245      2.6280    
  2.8350      3.1433      3.5447      4.0210      4.5418      5.0667      6.5638      6.9185      7.1124      7.1721    
  7.1123      6.9182      6.5635      6.0495      5.4313      4.7750      4.1389      3.5742      3.1173      2.7873    
  2.5899      2.5245      2.5899      2.7873      3.1172      3.5740      4.1387      4.7748      5.4312      6.0496    
  7.3211      7.4477      7.4723      7.4722      7.4474      7.3208      6.9964      6.4369      5.7098      4.9413    
  4.2139      3.5898      3.1086      2.7873      2.6280      2.6280      2.7873      3.1085      3.5896      4.2138    
  4.9413      5.7099      6.4370      6.9967      7.3123      7.1181      7.0260      7.1180      7.3121      7.4119    
  7.2254      6.6827      5.8831      5.0275      4.2396      3.5897      3.1173      2.8350      2.7416      2.8350    
  3.1172      3.5896      4.2396      5.0276      5.8832      6.6829      7.2257      7.4121      6.2432      5.8146    
  5.8146      6.2433      6.8584      7.3064      7.3077      6.7965      5.9416      5.0275      4.2138      3.5740    
  3.1433      2.9292      2.9292      3.1433      3.5740      4.2138      5.0276      5.9417      6.7966      7.3079    
  7.3065      6.8585      4.2417      3.8486      4.2418      5.2395      6.3880      7.1868      7.3231      6.7965    
  5.8831      4.9412      4.1386      3.5447      3.1868      3.0680      3.1868      3.5447      4.1387      4.9413    
  5.8832      6.7966      7.3231      7.1868      6.3879      5.2394      1.8809      1.8809      2.9237      4.5786    
  6.1914      7.1868      7.3078      6.6829      5.7098      4.7748      4.0210      3.5062      3.2486      3.2486    
  3.5063      4.0210      4.7748      5.7099      6.6829      7.3079      7.1868      6.1912      4.5784      2.9236    
 -.21210E-01 0.65347      2.4110      4.5784      6.3879      7.3065      7.2257      6.4370      5.4312      4.5418    
  3.8728      3.4659      3.3303      3.4659      3.8728      4.5418      5.4312      6.4370      7.2257      7.3065    
  6.3879      4.5784      2.4110     0.65347     -.74963     0.65333      2.9234      5.2391      6.8583      7.4120    
  6.9967      6.0496      5.0667      4.2630      3.7098      3.4318      3.4318      3.7098      4.2630      5.0667    
  6.0496      6.9967      7.4121      6.8585      5.2394      2.9236     0.65347     -.74958      2.9359      4.6104    
  6.2429      7.2527      7.3812      6.7582      5.7839      4.8463      4.0900      3.5735      3.3150      3.3150    
  3.5735      4.0899      4.8462      5.7838      6.7582      7.3813      7.2530      6.2433      4.6109      2.9363    
  1.8809      1.8807      4.6104      6.0435      7.1178      7.4596      7.0422      6.1501      5.1847      4.3544    
  3.7370      3.3641      3.2402      3.3641      3.7370      4.3543      5.1845      6.1500      7.0421      7.4597    
  7.1181      6.0440      4.6109      3.3975      2.9236      3.3972      6.2429      7.1178      7.4722      7.1723    
  6.3784      5.4294      4.5654      3.8789      3.4143      3.1829      3.1829      3.4143      3.8789      4.5653    
  5.4292      6.3781      7.1721      7.4722      7.1180      6.2433      5.2395      4.5786      4.5784      5.2391    
  7.2527      7.4596      7.1723      6.4551      5.5577      4.7013      3.9833      3.4571      3.1417      3.0373    
  3.1417      3.4571      3.9832      4.7011      5.5574      6.4548      7.1720      7.4595      7.2528      6.7217    
  6.1914      5.9723      6.1912      6.7215      7.3812      7.0422      6.3784      5.5577      4.7482      4.0384    
  3.4854      3.1149      2.9311      2.9312      3.1150      3.4855      4.0384      4.7480      5.5574      6.3780    
  7.0418      7.3809      7.3811      7.1867      7.0123      7.0123      7.1868      7.3813      6.7582      6.1501    
  5.4294      4.7013      4.0384      3.4952      3.1016      2.8665      2.7887      2.8665      3.1017      3.4954    
  4.0385      4.7013      5.4293      6.1499      6.7579      7.1453      7.3075      7.3315      7.3239      7.3317    
  7.3079      7.1457      5.7839      5.1847      4.5654      3.9833      3.4854      3.1016      2.8448      2.7170    
  2.7171      2.8448      3.1017      3.4855      3.9834      4.5655      5.1847      5.7837      6.3039      6.6826    
  6.9035      6.9973      6.9975      6.9038      6.6829      6.3042      4.8463      4.3544      3.8789      3.4571    
  3.1149      2.8665      2.7170      2.6673      2.7170      2.8664      3.1149      3.4572      3.8791      4.3546    
  4.8464      5.3117      5.7098      6.0096      6.1912      6.2511      6.1913      6.0098      5.7099      5.3117    
  4.0900      3.7370      3.4143      3.1417      2.9311      2.7887      2.7171      2.7170      2.7886      2.9310    
  3.1416      3.4144      3.7372      4.0902      4.4464      4.7750      5.0469      5.2395      5.3388      5.3388    
  5.2394      5.0468      4.7748      4.4462      3.5735      3.3641      3.1829      3.0373      2.9312      2.8665    
  2.8448      2.8664      2.9310      3.0371      3.1827      3.3640      3.5735      3.7986      4.0212      4.2205    
  4.3773      4.4769      4.5109      4.4768      4.3771      4.2203      4.0210      3.7985      3.3150      3.2402    
  3.1829      3.1417      3.1150      3.1017      3.1017      3.1149      3.1416      3.1827      3.2400      3.3148    
  3.4056      3.5063      3.6064      3.6937      3.7577      3.7913      3.7912      3.7575      3.6935      3.6062    
  3.5063      3.4057      3.3150      3.3641      3.4143      3.4571      3.4855      3.4954      3.4855      3.4572    
  3.4144      3.3640      3.3148      3.2748      3.2484      3.2352      3.2313      3.2318      3.2331      3.2337    
  3.2331      3.2317      3.2312      3.2353      3.2486      3.2751      3.5735      3.7370      3.8789      3.9832    
  4.0384      4.0385      3.9834      3.8791      3.7372      3.5735      3.4056      3.2484      3.1119      3.0008    
  2.9166      2.8598      2.8311      2.8311      2.8599      2.9167      3.0010      3.1121      3.2486      3.4057    
  4.0899      4.3543      4.5653      4.7011      4.7480      4.7013      4.5655      4.3546      4.0902      3.7986    
  3.5063      3.2352      3.0008      2.8123      2.6747      2.5910      2.5629      2.5911      2.6749      2.8125    
  3.0010      3.2353      3.5062      3.7985      4.8462      5.1845      5.4292      5.5574      5.5574      5.4293    
  5.1847      4.8464      4.4464      4.0212      3.6064      3.2313      2.9166      2.6747      2.5115      2.4296    
  2.4297      2.5117      2.6748      2.9167      3.2312      3.6062      4.0210      4.4461      5.7838      6.1500    
  6.3781      6.4548      6.3780      6.1499      5.7837      5.3117      4.7750      4.2205      3.6937      3.2318    
  2.8598      2.5910      2.4296      2.3760      2.4297      2.5910      2.8598      3.2317      3.6935      4.2203    
  4.7748      5.3116      6.7582      7.0421      7.1721      7.1720      7.0418      6.7579      6.3039      5.7098    
  5.0469      4.3773      3.7577      3.2331      2.8311      2.5629      2.4297      2.4297      2.5629      2.8311    
  3.2330      3.7575      4.3771      5.0468      5.7098      6.3041      7.3813      7.4597      7.4722      7.4595    
  7.3809      7.1453      6.6826      6.0096      5.2395      4.4769      3.7913      3.2337      2.8311      2.5911    
  2.5117      2.5910      2.8311      3.2336      3.7912      4.4768      5.2395      6.0098      6.6829      7.1457    
  7.2530      7.1181      7.1180      7.2528      7.3811      7.3075      6.9035      6.1912      5.3388      4.5109    
  3.7912      3.2331      2.8599      2.6749      2.6748      2.8598      3.2330      3.7912      4.5109      5.3389    
  6.1914      6.9038      7.3078      7.3814      6.2433      6.0440      6.2433      6.7217      7.1867      7.3315    
  6.9973      6.2511      5.3388      4.4768      3.7575      3.2317      2.9167      2.8125      2.9167      3.2317    
  3.7575      4.4768      5.3389      6.2512      6.9976      7.3317      7.1868      6.7218      4.6109      4.6109    
  5.2395      6.1914      7.0123      7.3239      6.9975      6.1913      5.2394      4.3771      3.6935      3.2312    
  3.0010      3.0010      3.2312      3.6935      4.3771      5.2395      6.1914      6.9976      7.3240      7.0123    
  6.1914      5.2395      2.9363      3.3975      4.5786      5.9723      7.0123      7.3317      6.9038      6.0098    
  5.0468      4.2203      3.6062      3.2353      3.1121      3.2353      3.6062      4.2203      5.0468      6.0098    
  6.9038      7.3317      7.0123      5.9723      4.5786      3.3975      1.8809      2.9236      4.5784      6.1912    
  7.1868      7.3079      6.6829      5.7099      4.7748      4.0210      3.5063      3.2486      3.2486      3.5062    
  4.0210      4.7748      5.7098      6.6829      7.3078      7.1868      6.1914      4.5786      2.9237      1.8809    
  1.8807      3.3972      5.2391      6.7215      7.3813      7.1457      6.3042      5.3117      4.4462      3.7985    
  3.4057      3.2751      3.4057      3.7985      4.4461      5.3116      6.3041      7.1457      7.3814      6.7218    
  5.2395      3.3975      1.8809      1.2950      5.5425      6.6019      7.3121      7.3812      6.8204      5.9043    
  4.9734      4.1817      3.5965      3.2440      3.1272      3.2441      3.5965      4.1816      4.9733      5.9041    
  6.8203      7.3813      7.3123      6.6023      5.5429      4.6109      4.2417      4.6107      6.6019      7.2675    
  7.4475      7.0422      6.2174      5.2870      4.4489      3.7861      3.3386      3.1159      3.1159      3.3386    
  3.7861      4.4488      5.2868      6.2172      7.0421      7.4475      7.2677      6.6022      5.7877      5.2395    
  5.2394      5.7875      7.3121      7.4475      7.1125      6.3784      5.4883      4.6447      3.9391      3.4227    
  3.1133      3.0109      3.1133      3.4227      3.9391      4.6446      5.4881      6.3781      7.1123      7.4474    
  7.3121      6.8584      6.3880      6.1914      6.3879      6.8583      7.3812      7.0422      6.3784      5.5577    
  4.7482      4.0384      3.4854      3.1149      2.9311      2.9312      3.1150      3.4855      4.0384      4.7480    
  5.5574      6.3780      7.0418      7.3809      7.3811      7.1867      7.0123      7.0123      7.1868      7.3813    
  6.8204      6.2174      5.4883      4.7482      4.0728      3.5188      3.1171      2.8773      2.7980      2.8774    
  3.1172      3.5189      4.0728      4.7481      5.4881      6.2171      6.8200      7.1876      7.3228      7.3238    
  7.3072      7.3240      7.3231      7.1880      5.9043      5.2870      4.6447      4.0384      3.5188      3.1180    
  2.8501      2.7170      2.7170      2.8502      3.1181      3.5189      4.0386      4.6448      5.2869      5.9040    
  6.4297      6.7961      6.9971      7.0766      7.0768      6.9976      6.7966      6.4302      4.9734      4.4489    