fcc Si                                  
   4.30000000000000     
     0.500000    0.500000    0.000000
     0.000000    0.500000    0.500000
     0.500000    0.000000    0.500000
   Si
     1
Direct
  0.000000  0.000000  0.000000
 
   24   24   24
 -.32530323033E+01 -.23628106645E+01 -.21407113493E-01 0.29359332831E+01 0.55425331763E+01
 0.71004786184E+01 0.74156501976E+01 0.67824790492E+01 0.57641538549E+01 0.48231466613E+01
 0.41068822503E+01 0.36683896792E+01 0.35218618793E+01 0.36683896792E+01 0.41068822503E+01
 0.48231466613E+01 0.57641538549E+01 0.67824790492E+01 0.74156501976E+01 0.71004786184E+01
 0.55425331763E+01 0.29359332831E+01 -.21407113493E-01 -.23628106645E+01 -.23628106645E+01
 -.74971962378E+00 0.18805127483E+01 0.46104105289E+01 0.66019347229E+01 0.74209544823E+01
 0.71434363903E+01 0.62267800721E+01 0.52211694605E+01 0.43916447574E+01 0.38181822420E+01
 0.35292461901E+01 0.35292271060E+01 0.38181499719E+01 0.43916376263E+01 0.52211890115E+01
 0.62268081328E+01 0.71434918687E+01 0.74210919024E+01 0.66021684844E+01 0.46106724557E+01
 0.18807047740E+01 -.74963188675E+00 -.23627902816E+01 -.21407113493E-01 0.18805127483E+01
 0.42413325818E+01 0.62428619299E+01 0.73120798483E+01 0.73210252149E+01 0.65637545890E+01
 0.55505264865E+01 0.46462373382E+01 0.39641048392E+01 0.35486617947E+01 0.34101647476E+01
 0.35486443311E+01 0.39640742750E+01 0.46461985155E+01 0.55504936091E+01 0.65637678346E+01
 0.73211421860E+01 0.73123368145E+01 0.62432359393E+01 0.42417449106E+01 0.18808605440E+01
 -.21209917556E-01 -.74963188675E+00 0.29359332831E+01 0.46104105289E+01 0.62428619299E+01
 0.72526887660E+01 0.73812128308E+01 0.67582206268E+01 0.57838656878E+01 0.48462986264E+01
 0.40899731022E+01 0.35735124989E+01 0.33150058660E+01 0.33150109337E+01 0.35735063255E+01
 0.40899194351E+01 0.48461958230E+01 0.57837660624E+01 0.67581990839E+01 0.73813254221E+01
 0.72529581757E+01 0.62432717643E+01 0.46108862989E+01 0.29363295124E+01 0.18808605440E+01
 0.18807047740E+01 0.55425331763E+01 0.66019347229E+01 0.73120798483E+01 0.73812128308E+01
 0.68203930412E+01 0.59042787882E+01 0.49734154183E+01 0.41816600826E+01 0.35964597077E+01
 0.32440435308E+01 0.31271581703E+01 0.32440615644E+01 0.35964635158E+01 0.41816102661E+01
 0.49733036976E+01 0.59041482995E+01 0.68203226289E+01 0.73812717546E+01 0.73122919592E+01
 0.66022593616E+01 0.55428670761E+01 0.46108862989E+01 0.42417449106E+01 0.46106724557E+01
 0.71004786184E+01 0.74209544823E+01 0.73210252149E+01 0.67582206268E+01 0.59042787882E+01
 0.50169186802E+01 0.42297069470E+01 0.36120178999E+01 0.31966304162E+01 0.29902513773E+01
 0.29902787478E+01 0.31966972582E+01 0.36120821772E+01 0.42297171390E+01 0.50168531061E+01
 0.59041684562E+01 0.67581321408E+01 0.73210095819E+01 0.74210163909E+01 0.71005820980E+01
 0.66022593616E+01 0.62432717643E+01 0.62432359393E+01 0.66021684844E+01 0.74156501976E+01
 0.71434363903E+01 0.65637545890E+01 0.57838656878E+01 0.49734154183E+01 0.42297069470E+01
 0.36174486611E+01 0.31727285230E+01 0.29070082816E+01 0.28191233401E+01 0.29070835672E+01
 0.31728556069E+01 0.36175826586E+01 0.42297970614E+01 0.49734354087E+01 0.57838230014E+01
 0.65636767278E+01 0.71433469716E+01 0.74155602091E+01 0.74210163909E+01 0.73122919592E+01
 0.72529581757E+01 0.73123368145E+01 0.74210919024E+01 0.67824790492E+01 0.62267800721E+01
 0.55505264865E+01 0.48462986264E+01 0.41816600826E+01 0.36120178999E+01 0.31727285230E+01
 0.28790607360E+01 0.27331852163E+01 0.27332044104E+01 0.28791263657E+01 0.31728474032E+01
 0.36121769072E+01 0.41818217354E+01 0.48464237606E+01 0.55505873080E+01 0.62267599412E+01
 0.67823821804E+01 0.71433469716E+01 0.73210095819E+01 0.73812717546E+01 0.73813254221E+01
 0.73211421860E+01 0.71434918687E+01 0.57641538549E+01 0.52211694605E+01 0.46462373382E+01
 0.40899731022E+01 0.35964597077E+01 0.31966304162E+01 0.29070082816E+01 0.27331852163E+01
 0.26753925536E+01 0.27331430110E+01 0.29069685499E+01 0.31966545415E+01 0.35965847165E+01
 0.40901823922E+01 0.46464624472E+01 0.52213325158E+01 0.57642061693E+01 0.62267599412E+01
 0.65636767278E+01 0.67581321408E+01 0.68203226289E+01 0.67581990839E+01 0.65637678346E+01
 0.62268081328E+01 0.48231466613E+01 0.43916447574E+01 0.39641048392E+01 0.35735124989E+01
 0.32440435308E+01 0.29902513773E+01 0.28191233401E+01 0.27332044104E+01 0.27331430110E+01
 0.28189661700E+01 0.29900749691E+01 0.32439444581E+01 0.35735548196E+01 0.39642774877E+01
 0.43918709952E+01 0.48233475942E+01 0.52213325158E+01 0.55505873080E+01 0.57838230014E+01
 0.59041684562E+01 0.59041482995E+01 0.57837660624E+01 0.55504936091E+01 0.52211890115E+01
 0.41068822503E+01 0.38181822420E+01 0.35486617947E+01 0.33150058660E+01 0.31271581703E+01
 0.29902787478E+01 0.29070835672E+01 0.28791263657E+01 0.29069685499E+01 0.29900749691E+01
 0.31269177489E+01 0.33147972635E+01 0.35485472768E+01 0.38181981130E+01 0.41070254512E+01
 0.43918709952E+01 0.46464624472E+01 0.48464237606E+01 0.49734354087E+01 0.50168531061E+01
 0.49733036976E+01 0.48461958230E+01 0.46461985155E+01 0.43916376263E+01 0.36683896792E+01
 0.35292461901E+01 0.34101647476E+01 0.33150109337E+01 0.32440615644E+01 0.31966972582E+01
 0.31728556069E+01 0.31728474032E+01 0.31966545415E+01 0.32439444581E+01 0.33147972635E+01
 0.34098856055E+01 0.35289881910E+01 0.36682560837E+01 0.38181981130E+01 0.39642774877E+01
 0.40901823922E+01 0.41818217354E+01 0.42297970614E+01 0.42297171390E+01 0.41816102661E+01
 0.40899194351E+01 0.39640742750E+01 0.38181499719E+01 0.35218618793E+01 0.35292271060E+01
 0.35486443311E+01 0.35735063255E+01 0.35964635158E+01 0.36120821772E+01 0.36175826586E+01
 0.36121769072E+01 0.35965847165E+01 0.35735548196E+01 0.35485472768E+01 0.35289881910E+01
 0.35215641760E+01 0.35289881910E+01 0.35485472768E+01 0.35735548196E+01 0.35965847165E+01
 0.36121769072E+01 0.36175826586E+01 0.36120821772E+01 0.35964635158E+01 0.35735063255E+01
 0.35486443311E+01 0.35292271060E+01 0.36683896792E+01 0.38181499719E+01 0.39640742750E+01
 0.40899194351E+01 0.41816102661E+01 0.42297171390E+01 0.42297970614E+01 0.41818217354E+01
 0.40901823922E+01 0.39642774877E+01 0.38181981130E+01 0.36682560837E+01 0.35289881910E+01
 0.34098856055E+01 0.33147972635E+01 0.32439444581E+01 0.31966545415E+01 0.31728474032E+01
 0.31728556069E+01 0.31966972582E+01 0.32440615644E+01 0.33150109337E+01 0.34101647476E+01
 0.35292461901E+01 0.41068822503E+01 0.43916376263E+01 0.46461985155E+01 0.48461958230E+01
 0.49733036976E+01 0.50168531061E+01 0.49734354087E+01 0.48464237606E+01 0.46464624472E+01
 0.43918709952E+01 0.41070254512E+01 0.38181981130E+01 0.35485472768E+01 0.33147972635E+01
 0.31269177489E+01 0.29900749691E+01 0.29069685499E+01 0.28791263657E+01 0.29070835672E+01
 0.29902787478E+01 0.31271581703E+01 0.33150058660E+01 0.35486617947E+01 0.38181822420E+01
 0.48231466613E+01 0.52211890115E+01 0.55504936091E+01 0.57837660624E+01 0.59041482995E+01
 0.59041684562E+01 0.57838230014E+01 0.55505873080E+01 0.52213325158E+01 0.48233475942E+01
 0.43918709952E+01 0.39642774877E+01 0.35735548196E+01 0.32439444581E+01 0.29900749691E+01
 0.28189661700E+01 0.27331430110E+01 0.27332044104E+01 0.28191233401E+01 0.29902513773E+01
 0.32440435308E+01 0.35735124989E+01 0.39641048392E+01 0.43916447574E+01 0.57641538549E+01
 0.62268081328E+01 0.65637678346E+01 0.67581990839E+01 0.68203226289E+01 0.67581321408E+01
 0.65636767278E+01 0.62267599412E+01 0.57642061693E+01 0.52213325158E+01 0.46464624472E+01
 0.40901823922E+01 0.35965847165E+01 0.31966545415E+01 0.29069685499E+01 0.27331430110E+01
 0.26753925536E+01 0.27331852163E+01 0.29070082816E+01 0.31966304162E+01 0.35964597077E+01
 0.40899731022E+01 0.46462373382E+01 0.52211694605E+01 0.67824790492E+01 0.71434918687E+01
 0.73211421860E+01 0.73813254221E+01 0.73812717546E+01 0.73210095819E+01 0.71433469716E+01
 0.67823821804E+01 0.62267599412E+01 0.55505873080E+01 0.48464237606E+01 0.41818217354E+01
 0.36121769072E+01 0.31728474032E+01 0.28791263657E+01 0.27332044104E+01 0.27331852163E+01
 0.28790607360E+01 0.31727285230E+01 0.36120178999E+01 0.41816600826E+01 0.48462986264E+01
 0.55505264865E+01 0.62267800721E+01 0.74156501976E+01 0.74210919024E+01 0.73123368145E+01
 0.72529581757E+01 0.73122919592E+01 0.74210163909E+01 0.74155602091E+01 0.71433469716E+01
 0.65636767278E+01 0.57838230014E+01 0.49734354087E+01 0.42297970614E+01 0.36175826586E+01
 0.31728556069E+01 0.29070835672E+01 0.28191233401E+01 0.29070082816E+01 0.31727285230E+01
 0.36174486611E+01 0.42297069470E+01 0.49734154183E+01 0.57838656878E+01 0.65637545890E+01
 0.71434363903E+01 0.71004786184E+01 0.66021684844E+01 0.62432359393E+01 0.62432717643E+01
 0.66022593616E+01 0.71005820980E+01 0.74210163909E+01 0.73210095819E+01 0.67581321408E+01
 0.59041684562E+01 0.50168531061E+01 0.42297171390E+01 0.36120821772E+01 0.31966972582E+01
 0.29902787478E+01 0.29902513773E+01 0.31966304162E+01 0.36120178999E+01 0.42297069470E+01
 0.50169186802E+01 0.59042787882E+01 0.67582206268E+01 0.73210252149E+01 0.74209544823E+01
 0.55425331763E+01 0.46106724557E+01 0.42417449106E+01 0.46108862989E+01 0.55428670761E+01
 0.66022593616E+01 0.73122919592E+01 0.73812717546E+01 0.68203226289E+01 0.59041482995E+01
 0.49733036976E+01 0.41816102661E+01 0.35964635158E+01 0.32440615644E+01 0.31271581703E+01
 0.32440435308E+01 0.35964597077E+01 0.41816600826E+01 0.49734154183E+01 0.59042787882E+01
 0.68203930412E+01 0.73812128308E+01 0.73120798483E+01 0.66019347229E+01 0.29359332831E+01
 0.18807047740E+01 0.18808605440E+01 0.29363295124E+01 0.46108862989E+01 0.62432717643E+01
 0.72529581757E+01 0.73813254221E+01 0.67581990839E+01 0.57837660624E+01 0.48461958230E+01
 0.40899194351E+01 0.35735063255E+01 0.33150109337E+01 0.33150058660E+01 0.35735124989E+01
 0.40899731022E+01 0.48462986264E+01 0.57838656878E+01 0.67582206268E+01 0.73812128308E+01
 0.72526887660E+01 0.62428619299E+01 0.46104105289E+01 -.21407113493E-01 -.74963188675E+00
 -.21209917556E-01 0.18808605440E+01 0.42417449106E+01 0.62432359393E+01 0.73123368145E+01
 0.73211421860E+01 0.65637678346E+01 0.55504936091E+01 0.46461985155E+01 0.39640742750E+01
 0.35486443311E+01 0.34101647476E+01 0.35486617947E+01 0.39641048392E+01 0.46462373382E+01
 0.55505264865E+01 0.65637545890E+01 0.73210252149E+01 0.73120798483E+01 0.62428619299E+01
 0.42413325818E+01 0.18805127483E+01 -.23628106645E+01 -.23627902816E+01 -.74963188675E+00
 0.18807047740E+01 0.46106724557E+01 0.66021684844E+01 0.74210919024E+01 0.71434918687E+01
 0.62268081328E+01 0.52211890115E+01 0.43916376263E+01 0.38181499719E+01 0.35292271060E+01
 0.35292461901E+01 0.38181822420E+01 0.43916447574E+01 0.52211694605E+01 0.62267800721E+01
 0.71434363903E+01 0.74209544823E+01 0.66019347229E+01 0.46104105289E+01 0.18805127483E+01
 -.74971962378E+00 -.23628125829E+01 -.74972266641E+00 0.18805109853E+01 0.46104100617E+01
 0.66019340022E+01 0.74209537835E+01 0.71434370113E+01 0.62267812343E+01 0.52211694343E+01
 0.43916441147E+01 0.38181826914E+01 0.35292472075E+01 0.35292270213E+01 0.38181493279E+01
 0.43916381053E+01 0.52211900824E+01 0.62268081412E+01 0.71434914352E+01 0.74210928649E+01
 0.66021704356E+01 0.46106736124E+01 0.18807052326E+01 -.74963105064E+00 -.23627900131E+01
 -.74972266641E+00 0.12947490396E+01 0.38481039357E+01 0.60434749146E+01 0.72675143024E+01
 0.73715346140E+01 0.66505629838E+01 0.56330321405E+01 0.47156661181E+01 0.40216831254E+01
 0.35983514564E+01 0.34571201783E+01 0.35983275019E+01 0.40216527485E+01 0.47156397168E+01
 0.56330183591E+01 0.66506036373E+01 0.73717021578E+01 0.72678433930E+01 0.60439053345E+01
 0.38485136410E+01 0.12950372327E+01 -.74958389275E+00 -.15306293752E+01 0.18805109853E+01
 0.38481039357E+01 0.58140648449E+01 0.71177691097E+01 0.74474491030E+01 0.69184466351E+01
 0.59510015591E+01 0.49884939454E+01 0.42069034571E+01 0.36712082237E+01 0.34025671391E+01
 0.34025665737E+01 0.36711908663E+01 0.42068427731E+01 0.49883944646E+01 0.59509237031E+01
 0.69184798963E+01 0.74476552711E+01 0.71181470207E+01 0.58145541166E+01 0.38486043349E+01
 0.18808935156E+01 0.65347333496E+00 0.65332920350E+00 0.46104100617E+01 0.60434749146E+01
 0.71177691097E+01 0.74595899613E+01 0.70421726399E+01 0.61501367690E+01 0.51846849346E+01
 0.43543839633E+01 0.37370229162E+01 0.33640790752E+01 0.32402177228E+01 0.33640765127E+01
 0.37369914229E+01 0.43542929124E+01 0.51845359987E+01 0.61499879244E+01 0.70421203837E+01
 0.74597186517E+01 0.71181056011E+01 0.60439588738E+01 0.46108989569E+01 0.33975278599E+01
 0.29236412002E+01 0.33972169910E+01 0.66019340022E+01 0.72675143024E+01 0.74474491030E+01
 0.70421726399E+01 0.62174080120E+01 0.52869910130E+01 0.44489104001E+01 0.37860931991E+01
 0.33385797822E+01 0.31158686320E+01 0.31158818777E+01 0.33386071930E+01 0.37860950551E+01
 0.44488358026E+01 0.52868249654E+01 0.62172111710E+01 0.70420575920E+01 0.74475021723E+01
 0.72677372550E+01 0.66022383961E+01 0.57877384616E+01 0.52394540158E+01 0.52393536534E+01
 0.57874816225E+01 0.74209537835E+01 0.73715346140E+01 0.69184466351E+01 0.61501367690E+01
 0.52869910130E+01 0.44814093760E+01 0.38120698804E+01 0.33237919676E+01 0.30316648100E+01
 0.29350402307E+01 0.30317390344E+01 0.33238961947E+01 0.38121369557E+01 0.44813882558E+01
 0.52868822419E+01 0.61499895647E+01 0.69183259443E+01 0.73714768368E+01 0.74209589092E+01
 0.71705549412E+01 0.68585143136E+01 0.67217717325E+01 0.68584817137E+01 0.71705165675E+01
 0.71434370113E+01 0.66505629838E+01 0.59510015591E+01 0.51846849346E+01 0.44489104001E+01
 0.38120698804E+01 0.33189029498E+01 0.29890822077E+01 0.28254464372E+01 0.28254907218E+01
 0.29891994960E+01 0.33190524186E+01 0.38122042316E+01 0.44489911385E+01 0.51846942868E+01
 0.59509377905E+01 0.66504440634E+01 0.71432940595E+01 0.73753154419E+01 0.74120281796E+01
 0.73813431569E+01 0.73813750210E+01 0.74121179263E+01 0.73754476243E+01 0.62267812343E+01
 0.56330321405E+01 0.49884939454E+01 0.43543839633E+01 0.37860931991E+01 0.33237919676E+01
 0.29890822077E+01 0.27887620544E+01 0.27223416318E+01 0.27887888100E+01 0.29891513626E+01
 0.33239151538E+01 0.37862590017E+01 0.43545529812E+01 0.49886178959E+01 0.56330743074E+01
 0.62267312167E+01 0.66963923629E+01 0.69965658429E+01 0.71456374143E+01 0.71880398875E+01
 0.71457209049E+01 0.69966937760E+01 0.66965066018E+01 0.52211694343E+01 0.47156661181E+01
 0.42069034571E+01 0.37370229162E+01 0.33385797822E+01 0.30316648100E+01 0.28254464372E+01
 0.27223416318E+01 0.27223065272E+01 0.28253654128E+01 0.30316006069E+01 0.33385994729E+01
 0.37371569917E+01 0.42071192323E+01 0.47158858540E+01 0.52213216087E+01 0.56787943879E+01
 0.60496071965E+01 0.63040557672E+01 0.64300561874E+01 0.64300751155E+01 0.63040962669E+01
 0.60496252951E+01 0.56787388029E+01 0.43916441147E+01 0.40216831254E+01 0.36712082237E+01
 0.33640790752E+01 0.31158686320E+01 0.29350402307E+01 0.28254907218E+01 0.27887888100E+01
 0.28253654128E+01 0.29348368069E+01 0.31156723411E+01 0.33639789835E+01 0.36712505606E+01
 0.40218467422E+01 0.43918623815E+01 0.47509065417E+01 0.50668607535E+01 0.53117301752E+01
 0.54657527748E+01 0.55181579835E+01 0.54656850742E+01 0.53116035390E+01 0.50666857585E+01
 0.47506947358E+01 0.38181826914E+01 0.35983514564E+01 0.34025671391E+01 0.32402177228E+01
 0.31158818777E+01 0.30317390344E+01 0.29891994960E+01 0.29891513626E+01 0.30316006069E+01
 0.31156723411E+01 0.32399756917E+01 0.34023490764E+01 0.35982214258E+01 0.38181900295E+01
 0.40466645614E+01 0.42632032985E+01 0.44464016449E+01 0.45782975114E+01 0.46469963632E+01
 0.46469202121E+01 0.45780917858E+01 0.44461296116E+01 0.42629507927E+01 0.40465124199E+01
 0.35292472075E+01 0.34571201783E+01 0.34025665737E+01 0.33640765127E+01 0.33386071930E+01
 0.33238961947E+01 0.33190524186E+01 0.33239151538E+01 0.33385994729E+01 0.33639789835E+01
 0.34023490764E+01 0.34568250138E+01 0.35289811492E+01 0.36160489298E+01 0.37098619039E+01
 0.37986517646E+01 0.38706192702E+01 0.39169578676E+01 0.39328334104E+01 0.39168155280E+01
 0.38703961463E+01 0.37984546660E+01 0.37098006477E+01 0.36161736771E+01 0.35292270213E+01
 0.35983275019E+01 0.36711908663E+01 0.37369914229E+01 0.37860950551E+01 0.38121369557E+01
 0.38122042316E+01 0.37862590017E+01 0.37371569917E+01 0.36712505606E+01 0.35982214258E+01
 0.35289811492E+01 0.34721966147E+01 0.34315547082E+01 0.34056352101E+01 0.33903027557E+01
 0.33816745938E+01 0.33776500596E+01 0.33776181322E+01 0.33816098618E+01 0.33902797608E+01
 0.34057256507E+01 0.34317743874E+01 0.34724846628E+01 0.38181493279E+01 0.40216527485E+01
 0.42068427731E+01 0.43542929124E+01 0.44488358026E+01 0.44813882558E+01 0.44489911385E+01
 0.43545529812E+01 0.42071192323E+01 0.40218467422E+01 0.38181900295E+01 0.36160489298E+01
 0.34315547082E+01 0.32748046044E+01 0.31505119309E+01 0.30604691790E+01 0.30057471294E+01
 0.29873652628E+01 0.30058020793E+01 0.30605977439E+01 0.31507223367E+01 0.32750638490E+01
 0.34317887361E+01 0.36161720154E+01 0.43916381053E+01 0.47156397168E+01 0.49883944646E+01
 0.51845359987E+01 0.52868249654E+01 0.52868822419E+01 0.51846942868E+01 0.49886178959E+01
 0.47158858540E+01 0.43918623815E+01 0.40466645614E+01 0.37098619039E+01 0.34056352101E+01
 0.31505119309E+01 0.29540461958E+01 0.28211288047E+01 0.27541714197E+01 0.27542332553E+01
 0.28212965038E+01 0.29542671423E+01 0.31507082858E+01 0.34057343465E+01 0.37098282064E+01
 0.40465124407E+01 0.52211900824E+01 0.56330183591E+01 0.59509237031E+01 0.61499879244E+01
 0.62172111710E+01 0.61499895647E+01 0.59509377905E+01 0.56330743074E+01 0.52213216087E+01
 0.47509065417E+01 0.42632032985E+01 0.37986517646E+01 0.33903027557E+01 0.30604691790E+01
 0.28211288047E+01 0.26769436695E+01 0.26289153574E+01 0.26770437604E+01 0.28212677307E+01
 0.30605539041E+01 0.33902613140E+01 0.37984787259E+01 0.42629665384E+01 0.47506964312E+01
 0.62268081412E+01 0.66506036373E+01 0.69184798963E+01 0.70421203837E+01 0.70420575920E+01
 0.69183259443E+01 0.66504440634E+01 0.62267312167E+01 0.56787943879E+01 0.50668607535E+01
 0.44464016449E+01 0.38706192702E+01 0.33816745938E+01 0.30057471294E+01 0.27541714197E+01
 0.26289153574E+01 0.26289321250E+01 0.27541959214E+01 0.30057221747E+01 0.33815587797E+01
 0.38704193216E+01 0.44461762506E+01 0.50666881003E+01 0.56787388167E+01 0.71434914352E+01
 0.73717021578E+01 0.74476552711E+01 0.74597186517E+01 0.74475021723E+01 0.73714768368E+01
 0.71432940595E+01 0.66963923629E+01 0.60496071965E+01 0.53117301752E+01 0.45782975114E+01
 0.39169578676E+01 0.33776500596E+01 0.29873652628E+01 0.27542332553E+01 0.26770437604E+01
 0.27541959214E+01 0.29872759358E+01 0.33775109260E+01 0.39168031713E+01 0.45781741488E+01
 0.53116684474E+01 0.60496275301E+01 0.66965049827E+01 0.74210928649E+01 0.72678433930E+01
 0.71181470207E+01 0.71181056011E+01 0.72677372550E+01 0.74209589092E+01 0.73753154419E+01
 0.69965658429E+01 0.63040557672E+01 0.54657527748E+01 0.46469963632E+01 0.39328334104E+01
 0.33776181322E+01 0.30058020793E+01 0.28212965038E+01 0.28212677307E+01 0.30057221747E+01
 0.33775109260E+01 0.39327448087E+01 0.46469686507E+01 0.54657969064E+01 0.63041505744E+01
 0.69966845870E+01 0.73754479330E+01 0.66021704356E+01 0.60439053345E+01 0.58145541166E+01
 0.60439588738E+01 0.66022383961E+01 0.71705549412E+01 0.74120281796E+01 0.71456374143E+01
 0.64300561874E+01 0.55181579835E+01 0.46469202121E+01 0.39168155280E+01 0.33816098618E+01
 0.30605977439E+01 0.29542671423E+01 0.30605539041E+01 0.33815587797E+01 0.39168031713E+01
 0.46469686507E+01 0.55182532657E+01 0.64301610239E+01 0.71457131712E+01 0.74120505233E+01
 0.71705191777E+01 0.46106736124E+01 0.38485136410E+01 0.38486043349E+01 0.46108989569E+01
 0.57877384616E+01 0.68585143136E+01 0.73813431569E+01 0.71880398875E+01 0.64300751155E+01
 0.54656850742E+01 0.45780917858E+01 0.38703961463E+01 0.33902797608E+01 0.31507223367E+01
 0.31507082858E+01 0.33902613140E+01 0.38704193216E+01 0.45781741488E+01 0.54657969064E+01
 0.64301610239E+01 0.71880523319E+01 0.73812542856E+01 0.68583215189E+01 0.57874834640E+01
 0.18807052326E+01 0.12950372327E+01 0.18808935156E+01 0.33975278599E+01 0.52394540158E+01
 0.67217717325E+01 0.73813750210E+01 0.71457209049E+01 0.63040962669E+01 0.53116035390E+01
 0.44461296116E+01 0.37984546660E+01 0.34057256507E+01 0.32750638490E+01 0.34057343465E+01
 0.37984787259E+01 0.44461762506E+01 0.53116684474E+01 0.63041505744E+01 0.71457131712E+01
 0.73812542856E+01 0.67215248892E+01 0.52391282968E+01 0.33972178887E+01 -.74963105064E+00
 -.74958389275E+00 0.65347333496E+00 0.29236412002E+01 0.52393536534E+01 0.68584817137E+01
 0.74121179263E+01 0.69966937760E+01 0.60496252951E+01 0.50666857585E+01 0.42629507927E+01
 0.37098006477E+01 0.34317743874E+01 0.34317887361E+01 0.37098282064E+01 0.42629665384E+01
 0.50666881003E+01 0.60496275301E+01 0.69966845870E+01 0.74120505233E+01 0.68583215189E+01
 0.52391282968E+01 0.29234258548E+01 0.65333177872E+00 -.23627900131E+01 -.15306293752E+01
 0.65332920350E+00 0.33972169910E+01 0.57874816225E+01 0.71705165675E+01 0.73754476243E+01
 0.66965066018E+01 0.56787388029E+01 0.47506947358E+01 0.40465124199E+01 0.36161736771E+01
 0.34724846628E+01 0.36161720154E+01 0.40465124407E+01 0.47506964312E+01 0.56787388167E+01
 0.66965049827E+01 0.73754479330E+01 0.71705191777E+01 0.57874834640E+01 0.33972178887E+01
 0.65333177872E+00 -.15306260808E+01 -.21411331492E-01 0.18805086469E+01 0.42413320272E+01
 0.62428632215E+01 0.73120798706E+01 0.73210251171E+01 0.65637565331E+01 0.55505285146E+01
 0.46462369150E+01 0.39641039312E+01 0.35486631002E+01 0.34101664367E+01 0.35486437709E+01
 0.39640733253E+01 0.46461998335E+01 0.55504953667E+01 0.65637674426E+01 0.73211416112E+01
 0.73123388094E+01 0.62432385427E+01 0.42417449899E+01 0.18808592420E+01 -.21210433759E-01
 -.74963332296E+00 0.18805086469E+01 0.38481028325E+01 0.58140660151E+01 0.71177708401E+01
 0.74474498227E+01 0.69184472192E+01 0.59510028787E+01 0.49884948197E+01 0.42069030710E+01
 0.36712079698E+01 0.34025680132E+01 0.34025672689E+01 0.36711904125E+01 0.42068424874E+01
 0.49883953297E+01 0.59509244211E+01 0.69184795235E+01 0.74476551517E+01 0.71181480737E+01
 0.58145547847E+01 0.38486032589E+01 0.18808917406E+01 0.65347196035E+00 0.65332747037E+00
 0.42413320272E+01 0.58140660151E+01 0.70256512341E+01 0.74721552612E+01 0.71124636351E+01
 0.62340941188E+01 0.52578012513E+01 0.44144029248E+01 0.37859385318E+01 0.34058536522E+01
 0.32795586633E+01 0.34058454536E+01 0.37858962131E+01 0.44142983663E+01 0.52576420839E+01
 0.62339455649E+01 0.71124259483E+01 0.74723107034E+01 0.70260173875E+01 0.58145721316E+01
 0.42418326585E+01 0.29237385176E+01 0.24109545468E+01 0.29234245316E+01 0.62428632215E+01
 0.71177708401E+01 0.74721552612E+01 0.71722530524E+01 0.63783742201E+01 0.54294346906E+01
 0.45653813123E+01 0.38789133457E+01 0.34143335106E+01 0.31828864593E+01 0.31828930545E+01
 0.34143383997E+01 0.38788738931E+01 0.45652524380E+01 0.54292112538E+01 0.63781247526E+01
 0.71720969825E+01 0.74721977526E+01 0.71180353094E+01 0.62432580555E+01 0.52394822110E+01
 0.45785658721E+01 0.45784246238E+01 0.52391291952E+01 0.73120798706E+01 0.74474498227E+01
 0.71124636351E+01 0.63783742201E+01 0.54883170984E+01 0.46447177099E+01 0.39391033200E+01
 0.34226537356E+01 0.31132783965E+01 0.30109135398E+01 0.31133357681E+01 0.34227161838E+01
 0.39390955034E+01 0.46445890354E+01 0.54880792110E+01 0.63781015138E+01 0.71122545477E+01
 0.74473718959E+01 0.73121384283E+01 0.68584497355E+01 0.63879695542E+01 0.61913743658E+01
 0.63878682871E+01 0.68583204611E+01 0.73210251171E+01 0.69184472192E+01 0.62340941188E+01
 0.54294346906E+01 0.46447177099E+01 0.39598894099E+01 0.34275017037E+01 0.30710980825E+01
 0.28943369547E+01 0.28943853475E+01 0.30712141533E+01 0.34276181755E+01 0.39599400048E+01
 0.46446706630E+01 0.54292963668E+01 0.62338935491E+01 0.69182226819E+01 0.73208110055E+01
 0.74118758826E+01 0.73063689759E+01 0.71867994533E+01 0.71868368277E+01 0.73064783537E+01
 0.74120485543E+01 0.65637565331E+01 0.59510028787E+01 0.52578012513E+01 0.45653813123E+01
 0.39391033200E+01 0.34275017037E+01 0.30569359219E+01 0.28355005632E+01 0.27622029247E+01
 0.28355678568E+01 0.30570562877E+01 0.34276491808E+01 0.39392433489E+01 0.45654710933E+01
 0.52578021642E+01 0.59508914303E+01 0.65635469194E+01 0.69964279185E+01 0.72254358082E+01
 0.73076960674E+01 0.73230936468E+01 0.73078355451E+01 0.72256704579E+01 0.69966856249E+01
 0.55505285146E+01 0.49884948197E+01 0.44144029248E+01 0.38789133457E+01 0.34226537356E+01
 0.30710980825E+01 0.28355005632E+01 0.27180861289E+01 0.27180818601E+01 0.28355054480E+01
 0.30711516567E+01 0.34227806728E+01 0.38790975243E+01 0.44145862013E+01 0.49886112495E+01
 0.55505375440E+01 0.60495344941E+01 0.64368611886E+01 0.66827481321E+01 0.67964867702E+01
 0.67965393516E+01 0.66828808730E+01 0.64370110900E+01 0.60496300219E+01 0.46462369150E+01
 0.42069030710E+01 0.37859385318E+01 0.34143335106E+01 0.31132783965E+01 0.28943369547E+01
 0.27622029247E+01 0.27180818601E+01 0.27621160856E+01 0.28942164953E+01 0.31132032071E+01
 0.34143643063E+01 0.37860841364E+01 0.42071158278E+01 0.46464439002E+01 0.50668337647E+01
 0.54313034136E+01 0.57098428927E+01 0.58831016991E+01 0.59416145595E+01 0.58831116119E+01
 0.57098336554E+01 0.54312356088E+01 0.50666876948E+01 0.39641039312E+01 0.36712079698E+01
 0.34058536522E+01 0.31828864593E+01 0.30109135398E+01 0.28943853475E+01 0.28355678568E+01
 0.28355054480E+01 0.28942164953E+01 0.30106918929E+01 0.31826909006E+01 0.34057569942E+01
 0.36712442758E+01 0.39642560912E+01 0.42631821034E+01 0.45420256858E+01 0.47750179094E+01
 0.49413227913E+01 0.50275288456E+01 0.50274800380E+01 0.49411856018E+01 0.47748178529E+01
 0.45417960422E+01 0.42629645831E+01 0.35486631002E+01 0.34025680132E+01 0.32795586633E+01
 0.31828930545E+01 0.31133357681E+01 0.30712141533E+01 0.30570562877E+01 0.30711516567E+01
 0.31132032071E+01 0.31826909006E+01 0.32793149768E+01 0.34023423826E+01 0.35485292284E+01
 0.37098413433E+01 0.38729151240E+01 0.40212164526E+01 0.41388714796E+01 0.42139378007E+01
 0.42396089288E+01 0.42137828375E+01 0.41386199914E+01 0.40209631124E+01 0.38727539865E+01
 0.37098290346E+01 0.34101664367E+01 0.34025672689E+01 0.34058454536E+01 0.34143383997E+01
 0.34227161838E+01 0.34276181755E+01 0.34276491808E+01 0.34227806728E+01 0.34143643063E+01
 0.34057569942E+01 0.34023423826E+01 0.34098677857E+01 0.34315376595E+01 0.34657611392E+01
 0.35063118426E+01 0.35448807711E+01 0.35741998677E+01 0.35897608773E+01 0.35896972434E+01
 0.35740424590E+01 0.35447173621E+01 0.35062494461E+01 0.34658671218E+01 0.34317910515E+01
 0.35486437709E+01 0.36711904125E+01 0.37858962131E+01 0.38788738931E+01 0.39390955034E+01
 0.39599400048E+01 0.39392433489E+01 0.38790975243E+01 0.37860841364E+01 0.36712442758E+01
 0.35485292284E+01 0.34315376595E+01 0.33300435979E+01 0.32484045296E+01 0.31866836802E+01
 0.31433260243E+01 0.31173084102E+01 0.31085749557E+01 0.31172909213E+01 0.31433351693E+01
 0.31867754637E+01 0.32486009687E+01 0.33303050410E+01 0.34317738978E+01 0.39640733253E+01
 0.42068424874E+01 0.44142983663E+01 0.45652524380E+01 0.46445890354E+01 0.46446706630E+01
 0.45654710933E+01 0.44145862013E+01 0.42071158278E+01 0.39642560912E+01 0.37098413433E+01
 0.34657611392E+01 0.32484045296E+01 0.30677614782E+01 0.29290072725E+01 0.28349009051E+01
 0.27873013953E+01 0.27873381681E+01 0.28350157723E+01 0.29291991924E+01 0.30679953885E+01
 0.32486104155E+01 0.34658644992E+01 0.37097986694E+01 0.46461998335E+01 0.49883953297E+01
 0.52576420839E+01 0.54292112538E+01 0.54880792110E+01 0.54292963668E+01 0.52578021642E+01
 0.49886112495E+01 0.46464439002E+01 0.42631821034E+01 0.38729151240E+01 0.35063118426E+01
 0.31866836802E+01 0.29290072725E+01 0.27414521935E+01 0.26278853572E+01 0.25899243338E+01
 0.26279973948E+01 0.27416302375E+01 0.29291749161E+01 0.31867660106E+01 0.35062680301E+01
 0.38727539740E+01 0.42629516300E+01 0.55504953667E+01 0.59509244211E+01 0.62339455649E+01
 0.63781247526E+01 0.63781015138E+01 0.62338935491E+01 0.59508914303E+01 0.55505375440E+01
 0.50668337647E+01 0.45420256858E+01 0.40212164526E+01 0.35448807711E+01 0.31433260243E+01
 0.28349009051E+01 0.26278853572E+01 0.25244390537E+01 0.25244846037E+01 0.26279855499E+01
 0.28349704979E+01 0.31432888733E+01 0.35447180091E+01 0.40209780117E+01 0.45417986381E+01
 0.50666881059E+01 0.65637674426E+01 0.69184795235E+01 0.71124259483E+01 0.71720969825E+01
 0.71122545477E+01 0.69182226819E+01 0.65635469194E+01 0.60495344941E+01 0.54313034136E+01
 0.47750179094E+01 0.41388714796E+01 0.35741998677E+01 0.31173084102E+01 0.27873013953E+01
 0.25899243338E+01 0.25244846037E+01 0.25899426963E+01 0.27872924072E+01 0.31172220674E+01
 0.35740255575E+01 0.41386536481E+01 0.47748358540E+01 0.54312355776E+01 0.60496248762E+01
 0.73211416112E+01 0.74476551517E+01 0.74723107034E+01 0.74721977526E+01 0.74473718959E+01
 0.73208110055E+01 0.69964279185E+01 0.64368611886E+01 0.57098428927E+01 0.49413227913E+01
 0.42139378007E+01 0.35897608773E+01 0.31085749557E+01 0.27873381681E+01 0.26279973948E+01
 0.26279855499E+01 0.27872924072E+01 0.31084841452E+01 0.35896374583E+01 0.42138230690E+01
 0.49412613064E+01 0.57098730901E+01 0.64370084314E+01 0.69966919869E+01 0.73123388094E+01
 0.71181480737E+01 0.70260173875E+01 0.71180353094E+01 0.73121384283E+01 0.74118758826E+01
 0.72254358082E+01 0.66827481321E+01 0.58831016991E+01 0.50275288456E+01 0.42396089288E+01
 0.35896972434E+01 0.31172909213E+01 0.28350157723E+01 0.27416302375E+01 0.28349704979E+01
 0.31172220674E+01 0.35896374583E+01 0.42395897625E+01 0.50275712031E+01 0.58832174207E+01
 0.66829331088E+01 0.72256704070E+01 0.74121192308E+01 0.62432385427E+01 0.58145547847E+01
 0.58145721316E+01 0.62432580555E+01 0.68584497355E+01 0.73063689759E+01 0.73076960674E+01
 0.67964867702E+01 0.59416145595E+01 0.50274800380E+01 0.42137828375E+01 0.35740424590E+01
 0.31433351693E+01 0.29291991924E+01 0.29291749161E+01 0.31432888733E+01 0.35740255575E+01
 0.42138230690E+01 0.50275712031E+01 0.59417430120E+01 0.67966413393E+01 0.73078528081E+01