   1   1   0   0
  0.1987675E+02  0.3040559E-09  0.3040559E-09  0.3040559E-09  0.5000000E-15
  1.000000000000000E-004
  CAR 
 fcc Si                                  
     22.40040913     -6.69178908  301      6.38231015      1.00000000
     -6.692  0.0000E+00  0.0000E+00
     -6.595  0.0000E+00  0.0000E+00
     -6.498  0.0000E+00  0.0000E+00
     -6.401  0.0000E+00  0.0000E+00
     -6.304  0.0000E+00  0.0000E+00
     -6.207  0.0000E+00  0.0000E+00
     -6.110  0.0000E+00  0.0000E+00
     -6.013  0.0000E+00  0.0000E+00
     -5.916  0.8344E-16  0.8091E-17
     -5.819  0.1579E-11  0.1532E-12
     -5.722  0.4750E-08  0.4608E-09
     -5.625  0.2317E-05  0.2252E-06
     -5.528  0.1900E-03  0.1865E-04
     -5.431  0.2795E-02  0.2897E-03
     -5.334  0.9492E-02  0.1210E-02
     -5.237  0.3129E-01  0.4245E-02
     -5.140  0.9204E-01  0.1317E-01
     -5.043  0.7929E-01  0.2086E-01
     -4.946  0.3693E-01  0.2444E-01
     -4.849  0.8611E-01  0.3279E-01
     -4.752  0.1145E+00  0.4390E-01
     -4.655  0.2088E+00  0.6415E-01
     -4.558  0.1995E+00  0.8350E-01
     -4.461  0.5546E-01  0.8887E-01
     -4.364  0.3779E-01  0.9254E-01
     -4.267  0.7034E-01  0.9936E-01
     -4.170  0.2078E+00  0.1195E+00
     -4.073  0.3445E+00  0.1529E+00
     -3.977  0.1690E+00  0.1693E+00
     -3.880  0.1251E+00  0.1814E+00
     -3.783  0.2030E+00  0.2011E+00
     -3.686  0.2133E+00  0.2218E+00
     -3.589  0.2476E+00  0.2458E+00
     -3.492  0.8228E-01  0.2538E+00
     -3.395  0.4613E-01  0.2583E+00
     -3.298  0.1119E+00  0.2691E+00
     -3.201  0.2542E+00  0.2938E+00
     -3.104  0.5596E+00  0.3481E+00
     -3.007  0.3657E+00  0.3835E+00
     -2.910  0.1152E+00  0.3947E+00
     -2.813  0.1901E+00  0.4131E+00
     -2.716  0.2137E+00  0.4338E+00
     -2.619  0.3218E+00  0.4651E+00
     -2.522  0.2693E+00  0.4912E+00
     -2.425  0.8568E-01  0.4995E+00
     -2.328  0.7225E-01  0.5065E+00
     -2.231  0.1546E+00  0.5215E+00
     -2.134  0.4678E+00  0.5668E+00
     -2.037  0.4288E+00  0.6084E+00
     -1.940  0.1998E+00  0.6278E+00
     -1.843  0.3753E+00  0.6642E+00
     -1.746  0.4268E+00  0.7056E+00
     -1.649  0.5665E+00  0.7605E+00
     -1.552  0.3395E+00  0.7934E+00
     -1.455  0.4963E-01  0.7982E+00
     -1.358  0.4155E-01  0.8023E+00
     -1.261  0.1761E+00  0.8193E+00
     -1.164  0.4441E+00  0.8624E+00
     -1.067  0.4020E+00  0.9014E+00
     -0.970  0.1923E+00  0.9200E+00
     -0.873  0.3103E+00  0.9501E+00
     -0.776  0.4780E+00  0.9965E+00
     -0.679  0.6088E+00  0.1056E+01
     -0.582  0.3161E+00  0.1086E+01
     -0.485  0.1142E+00  0.1097E+01
     -0.388  0.4889E+00  0.1145E+01
     -0.292  0.7768E+00  0.1220E+01
     -0.195  0.6901E+00  0.1287E+01
     -0.098  0.4712E+00  0.1333E+01
     -0.001  0.9544E-01  0.1342E+01
      0.096  0.6933E-01  0.1349E+01
      0.193  0.2883E+00  0.1377E+01
      0.290  0.4693E+00  0.1422E+01
      0.387  0.2572E+00  0.1447E+01
      0.484  0.9086E-01  0.1456E+01
      0.581  0.4349E+00  0.1498E+01
      0.678  0.8399E+00  0.1579E+01
      0.775  0.4689E+00  0.1625E+01
      0.872  0.1178E+00  0.1636E+01
      0.969  0.1386E+00  0.1650E+01
      1.066  0.4917E+00  0.1697E+01
      1.163  0.4854E+00  0.1745E+01
      1.260  0.2525E+00  0.1769E+01
      1.357  0.1329E+00  0.1782E+01
      1.454  0.7087E-01  0.1789E+01
      1.551  0.3961E+00  0.1827E+01
      1.648  0.6932E+00  0.1894E+01
      1.745  0.3463E+00  0.1928E+01
      1.842  0.2045E+00  0.1948E+01
      1.939  0.2253E+00  0.1970E+01
      2.036  0.1889E+00  0.1988E+01
      2.133  0.3574E+00  0.2023E+01
      2.230  0.4219E+00  0.2064E+01
      2.327  0.4083E+00  0.2103E+01
      2.424  0.4260E+00  0.2144E+01
      2.521  0.3508E+00  0.2178E+01
      2.618  0.4909E+00  0.2226E+01
      2.715  0.4036E+00  0.2265E+01
      2.812  0.1596E+00  0.2281E+01
      2.909  0.1838E-01  0.2282E+01
      3.006  0.1570E-01  0.2284E+01
      3.103  0.1691E+00  0.2300E+01
      3.200  0.4615E+00  0.2345E+01
      3.297  0.5505E+00  0.2399E+01
      3.394  0.6916E+00  0.2466E+01
      3.490  0.6113E+00  0.2525E+01
      3.587  0.4855E+00  0.2572E+01
      3.684  0.7222E+00  0.2642E+01
      3.781  0.8304E+00  0.2723E+01
      3.878  0.6248E+00  0.2783E+01
      3.975  0.2900E+00  0.2811E+01
      4.072  0.2270E+00  0.2833E+01
      4.169  0.4338E+00  0.2875E+01
      4.266  0.3769E+00  0.2912E+01
      4.363  0.4020E+00  0.2951E+01
      4.460  0.6062E+00  0.3010E+01
      4.557  0.8169E+00  0.3089E+01
      4.654  0.6685E+00  0.3154E+01
      4.751  0.2696E+00  0.3180E+01
      4.848  0.3731E+00  0.3216E+01
      4.945  0.2768E+00  0.3243E+01
      5.042  0.3029E+00  0.3272E+01
      5.139  0.5346E+00  0.3324E+01
      5.236  0.5437E+00  0.3377E+01
      5.333  0.3594E+00  0.3412E+01
      5.430  0.2718E+00  0.3438E+01
      5.527  0.6148E+00  0.3498E+01
      5.624  0.9872E+00  0.3593E+01
      5.721  0.4867E+00  0.3641E+01
      5.818  0.3463E+00  0.3674E+01
      5.915  0.7864E+00  0.3750E+01
      6.012  0.9324E+00  0.3841E+01
      6.109  0.4295E+00  0.3882E+01
      6.206  0.1790E+00  0.3900E+01
      6.303  0.4463E+00  0.3943E+01
      6.400  0.7261E+00  0.4014E+01
      6.497  0.7124E+00  0.4083E+01
      6.594  0.4573E+00  0.4127E+01
      6.691  0.3428E+00  0.4160E+01
      6.788  0.3522E+00  0.4194E+01
      6.885  0.4206E+00  0.4235E+01
      6.982  0.4489E+00  0.4279E+01
      7.079  0.3282E+00  0.4310E+01
      7.175  0.5712E+00  0.4366E+01
      7.272  0.7040E+00  0.4434E+01
      7.369  0.3758E+00  0.4471E+01
      7.466  0.5000E+00  0.4519E+01
      7.563  0.6551E+00  0.4583E+01
      7.660  0.7856E+00  0.4659E+01
      7.757  0.9058E+00  0.4747E+01
      7.854  0.8747E+00  0.4831E+01
      7.951  0.5897E+00  0.4889E+01
      8.048  0.2899E+00  0.4917E+01
      8.145  0.5937E+00  0.4974E+01
      8.242  0.1132E+01  0.5084E+01
      8.339  0.8323E+00  0.5165E+01
      8.436  0.5237E+00  0.5216E+01
      8.533  0.6287E+00  0.5277E+01
      8.630  0.6205E+00  0.5337E+01
      8.727  0.3727E+00  0.5373E+01
      8.824  0.4643E+00  0.5418E+01
      8.921  0.6110E+00  0.5477E+01
      9.018  0.3652E+00  0.5513E+01
      9.115  0.2924E+00  0.5541E+01
      9.212  0.6742E+00  0.5606E+01
      9.309  0.9425E+00  0.5698E+01
      9.406  0.1012E+01  0.5796E+01
      9.503  0.1265E+01  0.5919E+01
      9.600  0.1236E+01  0.6038E+01
      9.697  0.9573E+00  0.6131E+01
      9.794  0.7497E+00  0.6204E+01
      9.891  0.6566E+00  0.6268E+01
      9.988  0.3423E+00  0.6301E+01
     10.085  0.2361E+00  0.6324E+01
     10.182  0.3147E+00  0.6354E+01
     10.279  0.6649E+00  0.6419E+01
     10.376  0.5917E+00  0.6476E+01
     10.473  0.1745E+00  0.6493E+01
     10.570  0.1973E+00  0.6512E+01
     10.667  0.7036E+00  0.6580E+01
     10.764  0.1057E+01  0.6683E+01
     10.861  0.1012E+01  0.6781E+01
     10.957  0.7255E+00  0.6851E+01
     11.054  0.5980E+00  0.6909E+01
     11.151  0.3663E+00  0.6945E+01
     11.248  0.2831E+00  0.6972E+01
     11.345  0.4739E+00  0.7018E+01
     11.442  0.7471E+00  0.7091E+01
     11.539  0.8258E+00  0.7171E+01
     11.636  0.6166E+00  0.7231E+01
     11.733  0.5966E+00  0.7288E+01
     11.830  0.4894E+00  0.7336E+01
     11.927  0.4706E+00  0.7382E+01
     12.024  0.6043E+00  0.7440E+01
     12.121  0.6397E+00  0.7502E+01
     12.218  0.3484E+00  0.7536E+01
     12.315  0.4489E+00  0.7579E+01
     12.412  0.6760E+00  0.7645E+01
     12.509  0.6389E+00  0.7707E+01
     12.606  0.6100E+00  0.7766E+01
     12.703  0.5605E+00  0.7821E+01
     12.800  0.4331E+00  0.7863E+01
     12.897  0.5023E+00  0.7911E+01
     12.994  0.4818E+00  0.7958E+01
     13.091  0.4541E+00  0.8002E+01
     13.188  0.5566E+00  0.8056E+01
     13.285  0.5725E+00  0.8111E+01
     13.382  0.6947E+00  0.8179E+01
     13.479  0.4267E+00  0.8220E+01
     13.576  0.2431E+00  0.8244E+01
     13.673  0.4971E+00  0.8292E+01
     13.770  0.5951E+00  0.8350E+01
     13.867  0.6858E+00  0.8416E+01
     13.964  0.6549E+00  0.8480E+01
     14.061  0.6665E+00  0.8544E+01
     14.158  0.6679E+00  0.8609E+01
     14.255  0.6565E+00  0.8673E+01
     14.352  0.5804E+00  0.8729E+01
     14.449  0.7797E+00  0.8805E+01
     14.546  0.6099E+00  0.8864E+01
     14.642  0.1317E+00  0.8877E+01
     14.739  0.2136E+00  0.8897E+01
     14.836  0.6592E+00  0.8961E+01
     14.933  0.8364E+00  0.9042E+01
     15.030  0.5567E+00  0.9096E+01
     15.127  0.2676E+00  0.9122E+01
     15.224  0.2122E+00  0.9143E+01
     15.321  0.3015E+00  0.9172E+01
     15.418  0.5825E+00  0.9229E+01
     15.515  0.4699E+00  0.9274E+01
     15.612  0.1869E+00  0.9292E+01
     15.709  0.2911E+00  0.9320E+01
     15.806  0.5399E+00  0.9373E+01
     15.903  0.7584E+00  0.9446E+01
     16.000  0.7950E+00  0.9523E+01
     16.097  0.1124E+01  0.9632E+01
     16.194  0.1450E+01  0.9773E+01
     16.291  0.1168E+01  0.9886E+01
     16.388  0.8390E+00  0.9968E+01
     16.485  0.7795E+00  0.1004E+02
     16.582  0.5965E+00  0.1010E+02
     16.679  0.6083E+00  0.1016E+02
     16.776  0.5925E+00  0.1022E+02
     16.873  0.8404E+00  0.1030E+02
     16.970  0.7267E+00  0.1037E+02
     17.067  0.7885E+00  0.1045E+02
     17.164  0.8828E+00  0.1053E+02
     17.261  0.7584E+00  0.1061E+02
     17.358  0.4986E+00  0.1065E+02
     17.455  0.5809E+00  0.1071E+02
     17.552  0.6001E+00  0.1077E+02
     17.649  0.5122E+00  0.1082E+02
     17.746  0.7122E+00  0.1089E+02
     17.843  0.9840E+00  0.1098E+02
     17.940  0.9544E+00  0.1107E+02
     18.037  0.5188E+00  0.1113E+02
     18.134  0.2545E+00  0.1115E+02
     18.231  0.4939E+00  0.1120E+02
     18.328  0.8758E+00  0.1128E+02
     18.424  0.8430E+00  0.1136E+02
     18.521  0.4803E+00  0.1141E+02
     18.618  0.4861E+00  0.1146E+02
     18.715  0.5265E+00  0.1151E+02
     18.812  0.8103E+00  0.1159E+02
     18.909  0.7233E+00  0.1166E+02
     19.006  0.7639E+00  0.1173E+02
     19.103  0.8318E+00  0.1181E+02
     19.200  0.5463E+00  0.1187E+02
     19.297  0.3666E+00  0.1190E+02
     19.394  0.8664E-01  0.1191E+02
     19.491  0.4118E-02  0.1191E+02
     19.588  0.3470E-04  0.1191E+02
     19.685  0.4895E-07  0.1191E+02
     19.782  0.1120E-10  0.1191E+02
     19.879  0.1580E-13  0.1191E+02
     19.976  0.2044E-09  0.1191E+02
     20.073  0.4337E-06  0.1191E+02
     20.170  0.1511E-03  0.1191E+02
     20.267  0.9108E-02  0.1191E+02
     20.364  0.1043E+00  0.1192E+02
     20.461  0.2597E+00  0.1195E+02
     20.558  0.1589E+00  0.1196E+02
     20.655  0.2471E-01  0.1196E+02
     20.752  0.8827E-03  0.1196E+02
     20.849  0.2265E-03  0.1196E+02
     20.946  0.1121E-01  0.1197E+02
     21.043  0.1035E+00  0.1198E+02
     21.140  0.1858E+00  0.1199E+02
     21.237  0.6657E-01  0.1200E+02
     21.334  0.4560E-02  0.1200E+02
     21.431  0.5561E-04  0.1200E+02
     21.528  0.1140E-06  0.1200E+02
     21.625  0.3791E-10  0.1200E+02
     21.722  0.1982E-14  0.1200E+02
     21.819  0.0000E+00  0.1200E+02
     21.916  0.0000E+00  0.1200E+02
     22.013  0.0000E+00  0.1200E+02
     22.109  0.0000E+00  0.1200E+02
     22.206  0.0000E+00  0.1200E+02
     22.303  0.0000E+00  0.1200E+02
     22.400  0.0000E+00  0.1200E+02
