    1    1    1    1
  0.1987675E+02  0.3040559E-09  0.3040559E-09  0.3040559E-09  0.5000000E-15
  1.000000000000000E-004
  CAR 
 fcc Si                                  
      4     56      6
 
  0.0000000E+00  0.0000000E+00  0.0000000E+00  0.7513148E-03
    1       -5.369416   1.000000
    2       14.250957   0.000000
    3       14.251020   0.000000
    4       14.251020   0.000000
    5       17.336565   0.000000
    6       17.336586   0.000000
 
  0.9090909E-01  0.0000000E+00  0.0000000E+00  0.6010518E-02
    1       -5.177980   1.000000
    2       12.569072   0.000000
    3       13.924436   0.000000
    4       13.924488   0.000000
    5       17.494076   0.000000
    6       17.855360   0.000000
 
  0.1818182E+00  0.0000000E+00  0.0000000E+00  0.6010518E-02
    1       -4.605642   1.000000
    2        9.663726   0.000000
    3       13.355809   0.000000
    4       13.355860   0.000000
    5       17.306792   0.000000
    6       18.512654   0.000000
 
  0.2727273E+00  0.0000000E+00  0.0000000E+00  0.6010518E-02
    1       -3.660350   1.000000
    2        6.747984   0.000000
    3       12.900336   0.000000
    4       12.900384   0.000000
    5       17.031722   0.000000
    6       17.937591   0.000000
 
  0.3636364E+00  0.0000000E+00  0.0000000E+00  0.6010518E-02
    1       -2.365697   1.000000
    2        4.082144   1.000000
    3       12.628623   0.000000
    4       12.628668   0.000000
    5       16.862088   0.000000
    6       17.085084   0.000000
 
  0.4545455E+00  0.0000000E+00  0.0000000E+00  0.6010518E-02
    1       -0.860876   1.000000
    2        1.882336   1.000000
    3       12.513909   0.000000
    4       12.513954   0.000000
    5       16.574015   0.000000
    6       16.574283   0.000000
 
  0.9090909E-01  0.9090909E-01  0.0000000E+00  0.4507889E-02
    1       -5.114148   1.000000
    2       13.141793   0.000000
    3       13.141829   0.000000
    4       13.550475   0.000000
    5       16.177895   0.000000
    6       18.750815   0.000000
 
  0.1818182E+00  0.9090909E-01  0.0000000E+00  0.1803156E-01
    1       -4.668586   1.000000
    2       10.751992   0.000000
    3       12.404475   0.000000
    4       13.294653   0.000000
    5       16.195019   0.000000
    6       18.850091   0.000000
 
  0.2727273E+00  0.9090909E-01  0.0000000E+00  0.1803156E-01
    1       -3.847048   1.000000
    2        7.837599   0.000000
    3       11.902027   0.000000
    4       12.681470   0.000000
    5       16.267398   0.000000
    6       18.295091   0.000000
 
  0.3636364E+00  0.9090909E-01  0.0000000E+00  0.1803156E-01
    1       -2.665323   1.000000
    2        5.085779   1.000000
    3       11.682531   0.000000
    4       12.040546   0.000000
    5       15.713412   0.000000
    6       18.219662   0.000000
 
  0.4545455E+00  0.9090909E-01  0.0000000E+00  0.1803156E-01
    1       -1.190556   1.000000
    2        2.691686   1.000000
    3       11.456565   0.000000
    4       11.746217   0.000000
    5       15.478440   0.000000
    6       17.770959   0.000000
 
 -0.4545455E+00  0.9090909E-01  0.0000000E+00  0.1803156E-01
    1       -0.327415   1.000000
    2        1.597567   1.000000
    3       11.004503   0.000000
    4       12.068535   0.000000
    5       15.735746   0.000000
    6       17.259518   0.000000
 
 -0.3636364E+00  0.9090909E-01  0.0000000E+00  0.1803156E-01
    1       -1.703526   1.000000
    2        3.436592   1.000000
    3       10.769302   0.000000
    4       12.590241   0.000000
    5       16.432157   0.000000
    6       17.164137   0.000000
 
 -0.2727273E+00  0.9090909E-01  0.0000000E+00  0.1803156E-01
    1       -3.097823   1.000000
    2        5.976536   1.000000
    3       10.806323   0.000000
    4       13.225017   0.000000
    5       17.453133   0.000000
    6       17.542783   0.000000
 
 -0.1818182E+00  0.9090909E-01  0.0000000E+00  0.1803156E-01
    1       -4.162286   1.000000
    2        8.808771   0.000000
    3       11.141902   0.000000
    4       13.854902   0.000000
    5       17.933231   0.000000
    6       18.154611   0.000000
 
 -0.9090909E-01  0.9090909E-01  0.0000000E+00  0.9015778E-02
    1       -4.859568   1.000000
    2       11.582656   0.000000
    3       11.908865   0.000000
    4       14.235702   0.000000
    5       17.713924   0.000000
    6       17.834993   0.000000
 
  0.1818182E+00  0.1818182E+00  0.0000000E+00  0.4507889E-02
    1       -4.350557   1.000000
    2       11.545847   0.000000
    3       11.545879   0.000000
    4       11.842241   0.000000
    5       14.404545   0.000000
    6       16.938731   0.000000
 
  0.2727273E+00  0.1818182E+00  0.0000000E+00  0.1803156E-01
    1       -3.655149   1.000000
    2        9.128574   0.000000
    3       10.946813   0.000000
    4       11.317212   0.000000
    5       14.444041   0.000000
    6       16.085092   0.000000
 
  0.3636364E+00  0.1818182E+00  0.0000000E+00  0.1803156E-01
    1       -2.593604   1.000000
    2        6.393231   0.438632
    3       10.334880   0.000000
    4       10.651945   0.000000
    5       14.146597   0.000000
    6       17.421322   0.000000
 
  0.4545455E+00  0.1818182E+00  0.0000000E+00  0.1803156E-01
    1       -1.203912   1.000000
    2        3.894090   1.000000
    3        9.394002   0.000000
    4       10.675316   0.000000
    5       13.995866   0.000000
    6       19.218362   0.000000
 
 -0.4545455E+00  0.1818182E+00  0.0000000E+00  0.1803156E-01
    1        0.163552   1.000000
    2        2.075461   1.000000
    3        8.660203   0.000000
    4       11.007455   0.000000
    5       14.283301   0.000000
    6       19.210660   0.000000
 
 -0.3636364E+00  0.1818182E+00  0.0000000E+00  0.1803156E-01
    1       -0.700595   1.000000
    2        3.173167   1.000000
    3        8.211013   0.000000
    4       11.626686   0.000000
    5       14.985937   0.000000
    6       18.820137   0.000000
 
 -0.2727273E+00  0.1818182E+00  0.0000000E+00  0.1803156E-01
    1       -2.167965   1.000000
    2        5.551686   1.000000
    3        8.084782   0.000000
    4       12.469098   0.000000
    5       16.055520   0.000000
    6       18.800768   0.000000
 
 -0.1818182E+00  0.1818182E+00  0.0000000E+00  0.9015778E-02
    1       -3.344532   1.000000
    2        8.143294   0.000000
    3        8.420306   0.000000
    4       13.371530   0.000000
    5       17.389201   0.000000
    6       19.045934   0.000000
 
  0.2727273E+00  0.2727273E+00  0.0000000E+00  0.4507889E-02
    1       -3.086682   1.000000
    2        9.404338   0.000000
    3       10.244293   0.000000
    4       10.244322   0.000000
    5       12.941842   0.000000
    6       14.250203   0.000000
 
  0.3636364E+00  0.2727273E+00  0.0000000E+00  0.1803156E-01
    1       -2.149545   1.000000
    2        7.553899   0.000000
    3        8.905444   0.000000
    4        9.849395   0.000000
    5       12.941528   0.000000
    6       14.454532   0.000000
 
  0.4545455E+00  0.2727273E+00  0.0000000E+00  0.1803156E-01
    1       -0.868674   1.000000
    2        5.298733   1.000000
    3        7.470142   0.000000
    4        9.780414   0.000000
    5       12.838834   0.000000
    6       16.567895   0.000000
 
 -0.4545455E+00  0.2727273E+00  0.0000000E+00  0.1803156E-01
    1        0.611069   1.000000
    2        3.251106   1.000000
    3        6.443604   0.193017
    4       10.036936   0.000000
    5       13.079683   0.000000
    6       19.082229   0.000000
 
 -0.3636364E+00  0.2727273E+00  0.0000000E+00  0.1803156E-01
    1        0.576513   1.000000
    2        3.326160   1.000000
    3        5.787081   1.000000
    4       10.607932   0.000000
    5       13.718849   0.000000
    6       21.078036   0.000000
 
 -0.2727273E+00  0.2727273E+00  0.0000000E+00  0.9015778E-02
    1       -0.897240   1.000000
    2        5.413046   1.000000
    3        5.571120   1.000000
    4       11.456831   0.000000
    5       14.732966   0.000000
    6       20.469194   0.000000
 
  0.3636364E+00  0.3636364E+00  0.0000000E+00  0.4507889E-02
    1       -1.338680   1.000000
    2        6.471763   0.102926
    3        9.350527   0.000000
    4        9.350556   0.000000
    5       11.935012   0.000000
    6       12.711566   0.000000
 
  0.4545455E+00  0.3636364E+00  0.0000000E+00  0.1803156E-01
    1       -0.179209   1.000000
    2        5.035016   1.000000
    3        7.692727   0.000000
    4        9.177974   0.000000
    5       12.054750   0.000000
    6       13.624861   0.000000
 
 -0.4545455E+00  0.3636364E+00  0.0000000E+00  0.1803156E-01
    1        1.241841   1.000000
    2        3.817510   1.000000
    3        5.599611   1.000000
    4        9.336596   0.000000
    5       12.238521   0.000000
    6       16.120230   0.000000
 
 -0.3636364E+00  0.3636364E+00  0.0000000E+00  0.9015778E-02
    1        1.814159   1.000000
    2        3.625831   1.000000
    3        4.235208   1.000000
    4        9.820977   0.000000
    5       12.792448   0.000000
    6       18.956821   0.000000
 
  0.4545455E+00  0.4545455E+00  0.0000000E+00  0.4507889E-02
    1        0.846308   1.000000
    2        3.574306   1.000000
    3        8.898797   0.000000
    4        8.898825   0.000000
    5       11.429670   0.000000
    6       12.038820   0.000000
 
 -0.4545455E+00  0.4545455E+00  0.0000000E+00  0.9015778E-02
    1        1.885674   1.000000
    2        2.645054   1.000000
    3        7.393600   0.000000
    4        8.951924   0.000000
    5       11.762895   0.000000
    6       13.356622   0.000000
 
  0.2727273E+00  0.1818182E+00  0.9090909E-01  0.1803156E-01
    1       -4.098088   1.000000
    2        9.861718   0.000000
    3       10.202049   0.000000
    4       13.122865   0.000000
    5       16.172571   0.000000
    6       17.608044   0.000000
 
  0.3636364E+00  0.1818182E+00  0.9090909E-01  0.3606311E-01
    1       -3.156225   1.000000
    2        7.177176   0.000000
    3        9.601343   0.000000
    4       12.347051   0.000000
    5       16.226937   0.000000
    6       17.865417   0.000000
 
  0.4545455E+00  0.1818182E+00  0.9090909E-01  0.3606311E-01
    1       -1.866194   1.000000
    2        4.547940   1.000000
    3        9.444056   0.000000
    4       11.458198   0.000000
    5       15.915357   0.000000
    6       17.741928   0.000000
 
 -0.4545455E+00  0.1818182E+00  0.9090909E-01  0.3606311E-01
    1       -0.367479   1.000000
    2        2.362439   1.000000
    3        9.492485   0.000000
    4       10.839333   0.000000
    5       15.859668   0.000000
    6       17.174619   0.000000
 
  0.3636364E+00  0.2727273E+00  0.9090909E-01  0.1803156E-01
    1       -2.839005   1.000000
    2        8.308856   0.000000
    3        8.826557   0.000000
    4       10.689393   0.000000
    5       14.809596   0.000000
    6       15.424994   0.000000
 
  0.4545455E+00  0.2727273E+00  0.9090909E-01  0.3606311E-01
    1       -1.665815   1.000000
    2        5.930096   1.000000
    3        8.205983   0.000000
    4        9.685915   0.000000
    5       14.831520   0.000000
    6       17.013103   0.000000
 
 -0.4545455E+00  0.2727273E+00  0.9090909E-01  0.3606311E-01
    1       -0.204240   1.000000
    2        3.613295   1.000000
    3        7.738103   0.000000
    4        9.254609   0.000000
    5       14.923298   0.000000
    6       18.726517   0.000000
 
 -0.3636364E+00  0.2727273E+00  0.9090909E-01  0.3606311E-01
    1        0.639627   1.000000
    2        2.556470   1.000000
    3        7.209543   0.000000
    4        9.537960   0.000000
    5       15.351120   0.000000
    6       18.558681   0.000000
 
 -0.2727273E+00  0.2727273E+00  0.9090909E-01  0.3606311E-01
    1       -0.721544   1.000000
    2        4.373754   1.000000
    3        6.888290   0.000000
    4       10.276173   0.000000
    5       16.062975   0.000000
    6       18.324092   0.000000
 
 -0.1818182E+00  0.2727273E+00  0.9090909E-01  0.1803156E-01
    1       -2.101247   1.000000
    2        6.729672   0.000000
    3        7.005785   0.000000
    4       11.310599   0.000000
    5       16.851167   0.000000
    6       17.951505   0.000000
 
  0.4545455E+00  0.3636364E+00  0.9090909E-01  0.1803156E-01
    1       -1.100425   1.000000
    2        6.381424   0.505001
    3        7.886632   0.000000
    4        8.557667   0.000000
    5       13.859666   0.000000
    6       14.209732   0.000000
 
 -0.4545455E+00  0.3636364E+00  0.9090909E-01  0.3606311E-01
    1        0.266811   1.000000
    2        4.821050   1.000000
    3        6.284512   0.916678
    4        8.212751   0.000000
    5       14.057437   0.000000
    6       16.386759   0.000000
 
 -0.3636364E+00  0.3636364E+00  0.9090909E-01  0.3606311E-01
    1        1.564371   1.000000
    2        3.393823   1.000000
    3        5.177864   1.000000
    4        8.531774   0.000000
    5       14.435195   0.000000
    6       18.997841   0.000000
 
 -0.2727273E+00  0.3636364E+00  0.9090909E-01  0.1803156E-01
    1        0.693000   1.000000
    2        4.555634   1.000000
    3        4.600904   1.000000
    4        9.243018   0.000000
    5       15.146225   0.000000
    6       20.407005   0.000000
 
 -0.4545455E+00  0.4545455E+00  0.9090909E-01  0.1803156E-01
    1        1.059103   1.000000
    2        3.756124   1.000000
    3        7.412433   0.000000
    4        7.764173   0.000000
    5       13.380060   0.000000
    6       13.655113   0.000000
 
 -0.3636364E+00  0.4545455E+00  0.9090909E-01  0.1803156E-01
    1        2.148170   1.000000
    2        3.135909   1.000000
    3        5.524862   1.000000
    4        7.889566   0.000000
    5       13.802490   0.000000
    6       16.166268   0.000000
 
 -0.4545455E+00  0.3636364E+00  0.1818182E+00  0.1803156E-01
    1       -0.399387   1.000000
    2        5.594655   1.000000
    3        6.045117   0.999999
    4        8.400857   0.000000
    5       16.683935   0.000000
    6       17.074413   0.000000
 
 -0.3636364E+00  0.3636364E+00  0.1818182E+00  0.3606311E-01
    1        1.060377   1.000000
    2        3.736272   1.000000
    3        5.905699   1.000000
    4        7.597965   0.000000
    5       16.807543   0.000000
    6       18.370666   0.000000
 
 -0.3636364E+00  0.4545455E+00  0.1818182E+00  0.1803156E-01
    1        1.640548   1.000000
    2        4.167395   1.000000
    3        5.562122   1.000000
    4        6.501978   0.045289
    5       16.416271   0.000000
    6       16.623930   0.000000
 
 -0.2727273E+00  0.4545455E+00  0.1818182E+00  0.1803156E-01
    1        2.228629   1.000000
    2        4.112468   1.000000
    3        4.464663   1.000000
    4        6.610058   0.000639
    5       16.866198   0.000000
    6       19.039178   0.000000
