       N       E                     dE             d eps       ncg     rms          rms(c)
DAV:   1    -0.278446362453E+01   -0.27845E+01   -0.10326E+03   732   0.272E+02
DAV:   2    -0.457819658827E+01   -0.17937E+01   -0.16606E+01   966   0.262E+01
DAV:   3    -0.459704449579E+01   -0.18848E-01   -0.18606E-01   816   0.264E+00
DAV:   4    -0.459706906387E+01   -0.24568E-04   -0.24568E-04   990   0.101E-01
DAV:   5    -0.459706910147E+01   -0.37596E-07   -0.37924E-07   786   0.275E-03    0.173E+00
DAV:   6    -0.458781245449E+01    0.92566E-02   -0.48046E-03   768   0.394E-01    0.937E-01
DAV:   7    -0.458314828650E+01    0.46642E-02   -0.88550E-03   720   0.532E-01    0.116E-01
DAV:   8    -0.458315354649E+01   -0.52600E-05   -0.48821E-05   738   0.654E-02
   1 F= -.45831535E+01 E0= -.45812206E+01  d E =-.386596E-02
