<?xml version="1.0" encoding="ISO-8859-1"?>
<modeling>
 <generator>
  <i name="program" type="string">vasp </i>
  <i name="version" type="string">5.4.1  </i>
  <i name="subversion" type="string">24Jun15 (build Mar 11 2018 14:54:50) complex                          parallel </i>
  <i name="platform" type="string">IFC91_ompi </i>
  <i name="date" type="string">2020 04 11 </i>
  <i name="time" type="string">14:40:47 </i>
 </generator>
 <incar>
  <i type="string" name="SYSTEM"> fcc Si</i>
  <i type="int" name="ISTART">     0</i>
  <i type="string" name="PREC">normal</i>
  <i type="int" name="ICHARG">     2</i>
  <i name="ENCUT">    240.00000000</i>
  <i type="int" name="ISMEAR">     0</i>
  <i name="SIGMA">      0.10000000</i>
  <v type="int" name="KPOINT_BSE">    -1     0     0     0</v>
 </incar>
 <kpoints>
  <generation param="Monkhorst-Pack">
   <v type="int" name="divisions">      11       11       11 </v>
   <v name="usershift">      0.00000000       0.00000000       0.00000000 </v>
   <v name="genvec1">      0.09090909       0.00000000       0.00000000 </v>
   <v name="genvec2">      0.00000000       0.09090909       0.00000000 </v>
   <v name="genvec3">      0.00000000       0.00000000       0.09090909 </v>
   <v name="shift">      0.00000000       0.00000000       0.00000000 </v>
  </generation>
  <varray name="kpointlist" >
   <v>       0.00000000       0.00000000       0.00000000 </v>
   <v>       0.09090909       0.00000000       0.00000000 </v>
   <v>       0.18181818       0.00000000       0.00000000 </v>
   <v>       0.27272727       0.00000000       0.00000000 </v>
   <v>       0.36363636       0.00000000       0.00000000 </v>
   <v>       0.45454545       0.00000000       0.00000000 </v>
   <v>       0.09090909       0.09090909       0.00000000 </v>
   <v>       0.18181818       0.09090909       0.00000000 </v>
   <v>       0.27272727       0.09090909       0.00000000 </v>
   <v>       0.36363636       0.09090909       0.00000000 </v>
   <v>       0.45454545       0.09090909       0.00000000 </v>
   <v>      -0.45454545       0.09090909       0.00000000 </v>
   <v>      -0.36363636       0.09090909       0.00000000 </v>
   <v>      -0.27272727       0.09090909       0.00000000 </v>
   <v>      -0.18181818       0.09090909       0.00000000 </v>
   <v>      -0.09090909       0.09090909       0.00000000 </v>
   <v>       0.18181818       0.18181818       0.00000000 </v>
   <v>       0.27272727       0.18181818       0.00000000 </v>
   <v>       0.36363636       0.18181818       0.00000000 </v>
   <v>       0.45454545       0.18181818       0.00000000 </v>
   <v>      -0.45454545       0.18181818       0.00000000 </v>
   <v>      -0.36363636       0.18181818       0.00000000 </v>
   <v>      -0.27272727       0.18181818       0.00000000 </v>
   <v>      -0.18181818       0.18181818       0.00000000 </v>
   <v>       0.27272727       0.27272727       0.00000000 </v>
   <v>       0.36363636       0.27272727       0.00000000 </v>
   <v>       0.45454545       0.27272727       0.00000000 </v>
   <v>      -0.45454545       0.27272727       0.00000000 </v>
   <v>      -0.36363636       0.27272727       0.00000000 </v>
   <v>      -0.27272727       0.27272727       0.00000000 </v>
   <v>       0.36363636       0.36363636       0.00000000 </v>
   <v>       0.45454545       0.36363636       0.00000000 </v>
   <v>      -0.45454545       0.36363636       0.00000000 </v>
   <v>      -0.36363636       0.36363636       0.00000000 </v>
   <v>       0.45454545       0.45454545       0.00000000 </v>
   <v>      -0.45454545       0.45454545       0.00000000 </v>
   <v>       0.27272727       0.18181818       0.09090909 </v>
   <v>       0.36363636       0.18181818       0.09090909 </v>
   <v>       0.45454545       0.18181818       0.09090909 </v>
   <v>      -0.45454545       0.18181818       0.09090909 </v>
   <v>       0.36363636       0.27272727       0.09090909 </v>
   <v>       0.45454545       0.27272727       0.09090909 </v>
   <v>      -0.45454545       0.27272727       0.09090909 </v>
   <v>      -0.36363636       0.27272727       0.09090909 </v>
   <v>      -0.27272727       0.27272727       0.09090909 </v>
   <v>      -0.18181818       0.27272727       0.09090909 </v>
   <v>       0.45454545       0.36363636       0.09090909 </v>
   <v>      -0.45454545       0.36363636       0.09090909 </v>
   <v>      -0.36363636       0.36363636       0.09090909 </v>
   <v>      -0.27272727       0.36363636       0.09090909 </v>
   <v>      -0.45454545       0.45454545       0.09090909 </v>
   <v>      -0.36363636       0.45454545       0.09090909 </v>
   <v>      -0.45454545       0.36363636       0.18181818 </v>
   <v>      -0.36363636       0.36363636       0.18181818 </v>
   <v>      -0.36363636       0.45454545       0.18181818 </v>
   <v>      -0.27272727       0.45454545       0.18181818 </v>
  </varray>
  <varray name="weights" >
   <v>       0.00075131 </v>
   <v>       0.00601052 </v>
   <v>       0.00601052 </v>
   <v>       0.00601052 </v>
   <v>       0.00601052 </v>
   <v>       0.00601052 </v>
   <v>       0.00450789 </v>
   <v>       0.01803156 </v>
   <v>       0.01803156 </v>
   <v>       0.01803156 </v>
   <v>       0.01803156 </v>
   <v>       0.01803156 </v>
   <v>       0.01803156 </v>
   <v>       0.01803156 </v>
   <v>       0.01803156 </v>
   <v>       0.00901578 </v>
   <v>       0.00450789 </v>
   <v>       0.01803156 </v>
   <v>       0.01803156 </v>
   <v>       0.01803156 </v>
   <v>       0.01803156 </v>
   <v>       0.01803156 </v>
   <v>       0.01803156 </v>
   <v>       0.00901578 </v>
   <v>       0.00450789 </v>
   <v>       0.01803156 </v>
   <v>       0.01803156 </v>
   <v>       0.01803156 </v>
   <v>       0.01803156 </v>
   <v>       0.00901578 </v>
   <v>       0.00450789 </v>
   <v>       0.01803156 </v>
   <v>       0.01803156 </v>
   <v>       0.00901578 </v>
   <v>       0.00450789 </v>
   <v>       0.00901578 </v>
   <v>       0.01803156 </v>
   <v>       0.03606311 </v>
   <v>       0.03606311 </v>
   <v>       0.03606311 </v>
   <v>       0.01803156 </v>
   <v>       0.03606311 </v>
   <v>       0.03606311 </v>
   <v>       0.03606311 </v>
   <v>       0.03606311 </v>
   <v>       0.01803156 </v>
   <v>       0.01803156 </v>
   <v>       0.03606311 </v>
   <v>       0.03606311 </v>
   <v>       0.01803156 </v>
   <v>       0.01803156 </v>
   <v>       0.01803156 </v>
   <v>       0.01803156 </v>
   <v>       0.03606311 </v>
   <v>       0.01803156 </v>
   <v>       0.01803156 </v>
  </varray>
 </kpoints>
 <parameters>
  <separator name="general" >
   <i type="string" name="SYSTEM">fcc Si</i>
   <i type="logical" name="LCOMPAT"> F  </i>
  </separator>
  <separator name="electronic" >
   <i type="string" name="PREC">normal</i>
   <i name="ENMAX">    240.00000000</i>
   <i name="ENAUG">    322.06900000</i>
   <i name="EDIFF">      0.00010000</i>
   <i type="int" name="IALGO">    38</i>
   <i type="int" name="IWAVPR">    10</i>
   <i type="int" name="NBANDS">     6</i>
   <i name="NELECT">      4.00000000</i>
   <i type="int" name="TURBO">     0</i>
   <i type="int" name="IRESTART">     0</i>
   <i type="int" name="NREBOOT">     0</i>
   <i type="int" name="NMIN">     0</i>
   <i name="EREF">      0.00000000</i>
   <separator name="electronic smearing" >
    <i type="int" name="ISMEAR">     0</i>
    <i name="SIGMA">      0.10000000</i>
    <i name="KSPACING">      0.50000000</i>
    <i type="logical" name="KGAMMA"> T  </i>
   </separator>
   <separator name="electronic projectors" >
    <i type="logical" name="LREAL"> F  </i>
    <v name="ROPT">      0.00000000</v>
    <i type="int" name="LMAXPAW">  -100</i>
    <i type="int" name="LMAXMIX">     2</i>
    <i type="logical" name="NLSPLINE"> F  </i>
   </separator>
   <separator name="electronic startup" >
    <i type="int" name="ISTART">     0</i>
    <i type="int" name="ICHARG">     2</i>
    <i type="int" name="INIWAV">     1</i>
   </separator>
   <separator name="electronic spin" >
    <i type="int" name="ISPIN">     1</i>
    <i type="logical" name="LNONCOLLINEAR"> F  </i>
    <v name="MAGMOM">      1.00000000</v>
    <i name="NUPDOWN">     -1.00000000</i>
    <i type="logical" name="LSORBIT"> F  </i>
    <v name="SAXIS">      0.00000000      0.00000000      1.00000000</v>
    <i type="logical" name="LSPIRAL"> F  </i>
    <v name="QSPIRAL">      0.00000000      0.00000000      0.00000000</v>
    <i type="logical" name="LZEROZ"> F  </i>
   </separator>
   <separator name="electronic exchange-correlation" >
    <i type="logical" name="LASPH"> F  </i>
    <i type="logical" name="LMETAGGA"> F  </i>
   </separator>
   <separator name="electronic convergence" >
    <i type="int" name="NELM">    60</i>
    <i type="int" name="NELMDL">    -5</i>
    <i type="int" name="NELMIN">     2</i>
    <i name="ENINI">    240.00000000</i>
    <separator name="electronic convergence detail" >
     <i type="logical" name="LDIAG"> T  </i>
     <i type="logical" name="LSUBROT"> F  </i>
     <i name="WEIMIN">      0.00000000</i>
     <i name="EBREAK">      0.00000417</i>
     <i name="DEPER">      0.30000000</i>
     <i type="int" name="NRMM">     4</i>
     <i name="TIME">      0.40000000</i>
    </separator>
   </separator>
   <separator name="electronic mixer" >
    <i name="AMIX">      0.40000000</i>
    <i name="BMIX">      1.00000000</i>
    <i name="AMIN">      0.10000000</i>
    <i name="AMIX_MAG">      1.60000000</i>
    <i name="BMIX_MAG">      1.00000000</i>
    <separator name="electronic mixer details" >
     <i type="int" name="IMIX">     4</i>
     <i type="logical" name="MIXFIRST"> F  </i>
     <i type="int" name="MAXMIX">   -45</i>
     <i name="WC">    100.00000000</i>
     <i type="int" name="INIMIX">     1</i>
     <i type="int" name="MIXPRE">     1</i>
     <i type="int" name="MREMOVE">     5</i>
    </separator>
   </separator>
   <separator name="electronic dipolcorrection" >
    <i type="logical" name="LDIPOL"> F  </i>
    <i type="logical" name="LMONO"> F  </i>
    <i type="int" name="IDIPOL">     0</i>
    <i name="EPSILON">      1.00000000</i>
    <v name="DIPOL">   -100.00000000   -100.00000000   -100.00000000</v>
    <i name="EFIELD">      0.00000000</i>
   </separator>
  </separator>
  <separator name="grids" >
   <i type="int" name="NGX">    12</i>
   <i type="int" name="NGY">    12</i>
   <i type="int" name="NGZ">    12</i>
   <i type="int" name="NGXF">    24</i>
   <i type="int" name="NGYF">    24</i>
   <i type="int" name="NGZF">    24</i>
   <i type="logical" name="ADDGRID"> F  </i>
  </separator>
  <separator name="ionic" >
   <i type="int" name="NSW">     0</i>
   <i type="int" name="IBRION">    -1</i>
   <i type="int" name="ISIF">     2</i>
   <i name="PSTRESS">      0.00000000</i>
   <i name="EDIFFG">      0.00100000</i>
   <i type="int" name="NFREE">     0</i>
   <i name="POTIM">      0.50000000</i>
   <i name="SMASS">     -3.00000000</i>
   <i name="SCALEE">      1.00000000</i>
  </separator>
  <separator name="ionic md" >
   <i name="TEBEG">      0.00010000</i>
   <i name="TEEND">      0.00010000</i>
   <i type="int" name="NBLOCK">     1</i>
   <i type="int" name="KBLOCK">     1</i>
   <i type="int" name="NPACO">   256</i>
   <i name="APACO">     16.00000000</i>
  </separator>
  <separator name="symmetry" >
   <i type="int" name="ISYM">     2</i>
   <i name="SYMPREC">      0.00001000</i>
  </separator>
  <separator name="dos" >
   <i type="logical" name="LORBIT"> F  </i>
   <v name="RWIGS">     -1.00000000</v>
   <i type="int" name="NEDOS">   301</i>
   <i name="EMIN">     10.00000000</i>
   <i name="EMAX">    -10.00000000</i>
   <i name="EFERMI">      0.00000000</i>
  </separator>
  <separator name="writing" >
   <i type="int" name="NWRITE">     2</i>
   <i type="logical" name="LWAVE"> T  </i>
   <i type="logical" name="LCHARG"> T  </i>
   <i type="logical" name="LPARD"> F  </i>
   <i type="logical" name="LVTOT"> F  </i>
   <i type="logical" name="LVHAR"> F  </i>
   <i type="logical" name="LELF"> F  </i>
   <i type="logical" name="LOPTICS"> F  </i>
   <v name="STM">      0.00000000      0.00000000      0.00000000      0.00000000      0.00000000      0.00000000      0.00000000</v>
  </separator>
  <separator name="performance" >
   <i type="int" name="NPAR">     1</i>
   <i type="int" name="NSIM">     4</i>
   <i type="int" name="NBLK">    -1</i>
   <i type="logical" name="LPLANE"> T  </i>
   <i type="logical" name="LSCALAPACK"> T  </i>
   <i type="logical" name="LSCAAWARE"> F  </i>
   <i type="logical" name="LSCALU"> F  </i>
   <i type="logical" name="LASYNC"> F  </i>
   <i type="logical" name="LORBITALREAL"> F  </i>
  </separator>
  <separator name="miscellaneous" >
   <i type="int" name="IDIOT">     3</i>
   <i type="logical" name="LMUSIC"> F  </i>
   <v name="POMASS">     28.08500000</v>
   <v name="DARWINR">      0.00000000</v>
   <v name="DARWINV">      1.00000000</v>
   <i type="logical" name="LCORR"> T  </i>
  </separator>
  <i type="logical" name="GGA_COMPAT"> T  </i>
  <i type="logical" name="LBERRY"> F  </i>
  <i type="int" name="ICORELEVEL">     0</i>
  <i type="logical" name="LDAU"> F  </i>
  <i type="int" name="I_CONSTRAINED_M">     0</i>
  <separator name="electronic exchange-correlation" >
   <i type="string" name="GGA">--</i>
   <i type="int" name="VOSKOWN">     0</i>
   <i type="logical" name="LHFCALC"> F  </i>
   <i type="string" name="PRECFOCK"></i>
   <i type="logical" name="LSYMGRAD"> F  </i>
   <i type="logical" name="LHFONE"> F  </i>
   <i type="logical" name="LRHFCALC"> F  </i>
   <i type="logical" name="LTHOMAS"> F  </i>
   <i type="logical" name="LMODELHF"> F  </i>
   <i name="ENCUT4O">     -1.00000000</i>
   <i type="int" name="EXXOEP">     0</i>
   <i type="int" name="FOURORBIT">     0</i>
   <i name="AEXX">      0.00000000</i>
   <i name="HFALPHA">      0.00000000</i>
   <i name="MCALPHA">      0.00000000</i>
   <i name="ALDAX">      1.00000000</i>
   <i name="AGGAX">      1.00000000</i>
   <i name="ALDAC">      1.00000000</i>
   <i name="AGGAC">      1.00000000</i>
   <i type="int" name="NKREDX">     1</i>
   <i type="int" name="NKREDY">     1</i>
   <i type="int" name="NKREDZ">     1</i>
   <i type="logical" name="SHIFTRED"> F  </i>
   <i type="logical" name="ODDONLY"> F  </i>
   <i type="logical" name="EVENONLY"> F  </i>
   <i type="int" name="LMAXFOCK">     0</i>
   <i type="int" name="NMAXFOCKAE">     0</i>
   <i type="logical" name="LFOCKAEDFT"> F  </i>
   <i name="HFSCREEN">      0.00000000</i>
   <i name="HFSCREENC">      0.00000000</i>
   <i type="int" name="NBANDSGWLOW">     0</i>
  </separator>
  <separator name="vdW DFT" >
   <i type="logical" name="LUSE_VDW"> F  </i>
   <i name="Zab_VDW">     -0.84910000</i>
   <i name="PARAM1">      0.12340000</i>
   <i name="PARAM2">      1.00000000</i>
   <i name="PARAM3">      0.00000000</i>
  </separator>
  <separator name="model GW" >
   <i type="int" name="MODEL_GW">     0</i>
   <i name="MODEL_EPS0">     11.92605000</i>
   <i name="MODEL_ALPHA">      1.00000000</i>
  </separator>
  <separator name="linear response parameters" >
   <i type="logical" name="LEPSILON"> F  </i>
   <i type="logical" name="LRPA"> F  </i>
   <i type="logical" name="LNABLA"> F  </i>
   <i type="logical" name="LVEL"> F  </i>
   <i type="int" name="KINTER">     0</i>
   <i name="CSHIFT">      0.10000000</i>
   <i name="OMEGAMAX">     -1.00000000</i>
   <i name="DEG_THRESHOLD">      0.00200000</i>
  </separator>
  <separator name="orbital magnetization" >
   <i type="logical" name="NUCIND"> F  </i>
   <v name="MAGPOS">      0.00000000      0.00000000      0.00000000</v>
   <i type="logical" name="LNICSALL"> T  </i>
   <i type="logical" name="ORBITALMAG"> F  </i>
   <i type="logical" name="LMAGBLOCH"> F  </i>
   <i type="logical" name="LCHIMAG"> F  </i>
   <i type="logical" name="LGAUGE"> T  </i>
   <i type="int" name="MAGATOM">     0</i>
   <v name="MAGDIPOL">      0.00000000      0.00000000      0.00000000</v>
   <v name="AVECCONST">      0.00000000      0.00000000      0.00000000</v>
  </separator>
  <separator name="response functions" >
   <i type="logical" name="LADDER"> F  </i>
   <i type="logical" name="LFXC"> F  </i>
   <i type="logical" name="LHARTREE"> T  </i>
   <i type="int" name="IBSE">     0</i>
   <v type="int" name="KPOINT">    -1     0     0     0</v>
   <i type="logical" name="LTCTE"> F  </i>
   <i type="logical" name="LTETE"> F  </i>
   <i type="logical" name="LTRIPLET"> F  </i>
   <i type="logical" name="LFXCEPS"> F  </i>
   <i type="logical" name="LFXHEG"> F  </i>
   <i type="int" name="NATURALO">     0</i>
   <i type="logical" name="L2ORDER"> F  </i>
   <i type="logical" name="LUSEW"> F  </i>
   <i name="ENCUTGW">     -2.00000000</i>
   <i name="ENCUTGWSOFT">     -2.00000000</i>
   <i name="ENCUTLF">     -1.00000000</i>
   <i type="int" name="LMAXMP2">    -1</i>
   <i name="SCISSOR">      0.00000000</i>
   <i type="int" name="NOMEGA">     0</i>
   <i type="int" name="NOMEGAR">     0</i>
   <i type="int" name="NBANDSGW">    -1</i>
   <i type="int" name="NBANDSO">    -1</i>
   <i type="int" name="NBANDSV">    -1</i>
   <i type="int" name="NELM">     1</i>
   <i type="int" name="NELMHF">     1</i>
   <i type="int" name="DIM">     3</i>
   <i type="int" name="ANTIRES">     0</i>
   <i name="OMEGAMAX">    -30.00000000</i>
   <i name="OMEGAMIN">    -30.00000000</i>
   <i name="OMEGATL">   -200.00000000</i>
   <i type="int" name="OMEGAGRID">     0</i>
   <i name="CSHIFT">     -0.10000000</i>
   <i type="logical" name="SELFENERGY"> F  </i>
   <i type="logical" name="LSPECTRAL"> F  </i>
   <i type="logical" name="LSPECTRALGW"> F  </i>
   <i type="logical" name="LSINGLES"> F  </i>
   <i type="logical" name="LFERMIGW"> F  </i>
   <i type="logical" name="ODDONLYGW"> F  </i>
   <i type="logical" name="EVENONLYGW"> F  </i>
   <i type="int" name="NKREDLFX">     1</i>
   <i type="int" name="NKREDLFY">     1</i>
   <i type="int" name="NKREDLFZ">     1</i>
   <i type="int" name="MAXMEM">  1800</i>
   <i type="int" name="TELESCOPE">     0</i>
   <i type="int" name="TAUPAR">     1</i>
   <i type="int" name="OMEGAPAR">    -1</i>
   <i name="LAMBDA">      1.00000000</i>
  </separator>
  <separator name="External order field" >
   <i name="OFIELD_KAPPA">      0.00000000</i>
   <v name="OFIELD_K">      0.00000000      0.00000000      0.00000000</v>
   <i name="OFIELD_Q6_NEAR">      0.00000000</i>
   <i name="OFIELD_Q6_FAR">      0.00000000</i>
   <i name="OFIELD_A">      0.00000000</i>
  </separator>
 </parameters>
 <atominfo>
  <atoms>       1 </atoms>
  <types>       1 </types>
  <array name="atoms" >
   <dimension dim="1">ion</dimension>
   <field type="string">element</field>
   <field type="int">atomtype</field>
   <set>
    <rc><c>Si</c><c>   1</c></rc>
   </set>
  </array>
  <array name="atomtypes" >
   <dimension dim="1">type</dimension>
   <field type="int">atomspertype</field>
   <field type="string">element</field>
   <field>mass</field>
   <field>valence</field>
   <field type="string">pseudopotential</field>
   <set>
    <rc><c>   1</c><c>Si</c><c>     28.08500000</c><c>      4.00000000</c><c>  PAW_PBE Si 05Jan2001                  </c></rc>
   </set>
  </array>
 </atominfo>
 <structure name="initialpos" >
  <crystal>
   <varray name="basis" >
    <v>       2.15000000       2.15000000       0.00000000 </v>
    <v>       0.00000000       2.15000000       2.15000000 </v>
    <v>       2.15000000       0.00000000       2.15000000 </v>
   </varray>
   <i name="volume">     19.87675000 </i>
   <varray name="rec_basis" >
    <v>       0.23255814       0.23255814      -0.23255814 </v>
    <v>      -0.23255814       0.23255814       0.23255814 </v>
    <v>       0.23255814      -0.23255814       0.23255814 </v>
   </varray>
  </crystal>
  <varray name="positions" >
   <v>       0.00000000       0.00000000       0.00000000 </v>
  </varray>
 </structure>
 <calculation>
  <scstep>
   <time name="dav">    0.10    0.10</time>
   <time name="total">    0.11    0.11</time>
   <energy>
    <i name="alphaZ">      1.69359331 </i>
    <i name="ewald">   -122.82983823 </i>
    <i name="hartreedc">     -1.63218441 </i>
    <i name="XCdc">     -9.56225051 </i>
    <i name="pawpsdc">     88.12379961 </i>
    <i name="pawaedc">    -70.53051779 </i>
    <i name="eentropy">     -0.00226890 </i>
    <i name="bandstr">      8.89442671 </i>
    <i name="atom">    103.06077658 </i>
    <i name="e_fr_energy">     -2.78446362 </i>
    <i name="e_wo_entrp">     -2.78219473 </i>
    <i name="e_0_energy">     -2.78332918 </i>
   </energy>
  </scstep>
  <scstep>
   <time name="dav">    0.13    0.13</time>
   <time name="total">    0.13    0.13</time>
   <energy>
    <i name="e_fr_energy">     -4.57819659 </i>
    <i name="e_wo_entrp">     -4.57487279 </i>
    <i name="e_0_energy">     -4.57653469 </i>
   </energy>
  </scstep>
  <scstep>
   <time name="dav">    0.11    0.11</time>
   <time name="total">    0.11    0.11</time>
   <energy>
    <i name="e_fr_energy">     -4.59704450 </i>
    <i name="e_wo_entrp">     -4.59322082 </i>
    <i name="e_0_energy">     -4.59513266 </i>
   </energy>
  </scstep>
  <scstep>
   <time name="dav">    0.13    0.13</time>
   <time name="total">    0.13    0.13</time>
   <energy>
    <i name="e_fr_energy">     -4.59706906 </i>
    <i name="e_wo_entrp">     -4.59324491 </i>
    <i name="e_0_energy">     -4.59515699 </i>
   </energy>
  </scstep>
  <scstep>
   <time name="dav">    0.11    0.11</time>
   <time name="total">    0.11    0.12</time>
   <energy>
    <i name="e_fr_energy">     -4.59706910 </i>
    <i name="e_wo_entrp">     -4.59324495 </i>
    <i name="e_0_energy">     -4.59515702 </i>
   </energy>
  </scstep>
  <scstep>
   <time name="dav">    0.10    0.11</time>
   <time name="total">    0.12    0.12</time>
   <energy>
    <i name="e_fr_energy">     -4.58781245 </i>
    <i name="e_wo_entrp">     -4.58397321 </i>
    <i name="e_0_energy">     -4.58589283 </i>
   </energy>
  </scstep>
  <scstep>
   <time name="dav">    0.10    0.10</time>
   <time name="total">    0.12    0.12</time>
   <energy>
    <i name="e_fr_energy">     -4.58314829 </i>
    <i name="e_wo_entrp">     -4.57928100 </i>
    <i name="e_0_energy">     -4.58121464 </i>
   </energy>
  </scstep>
  <scstep>
   <time name="dav">    0.10    0.10</time>
   <time name="total">    0.12    0.12</time>
   <energy>
    <i name="alphaZ">      1.69359331 </i>
    <i name="ewald">   -122.82983823 </i>
    <i name="hartreedc">     -1.28525517 </i>
    <i name="XCdc">     -9.57698336 </i>
    <i name="pawpsdc">    196.73246920 </i>
    <i name="pawaedc">   -179.11206969 </i>
    <i name="eentropy">     -0.00386596 </i>
    <i name="bandstr">      6.73801979 </i>
    <i name="atom">    103.06077658 </i>
    <i name="e_fr_energy">     -4.58315355 </i>
    <i name="e_wo_entrp">     -4.57928759 </i>
    <i name="e_0_energy">     -4.58122057 </i>
   </energy>
  </scstep>
  <structure>
   <crystal>
    <varray name="basis" >
     <v>       2.15000000       2.15000000       0.00000000 </v>
     <v>       0.00000000       2.15000000       2.15000000 </v>
     <v>       2.15000000       0.00000000       2.15000000 </v>
    </varray>
    <i name="volume">     19.87675000 </i>
    <varray name="rec_basis" >
     <v>       0.23255814       0.23255814      -0.23255814 </v>
     <v>      -0.23255814       0.23255814       0.23255814 </v>
     <v>       0.23255814      -0.23255814       0.23255814 </v>
    </varray>
   </crystal>
   <varray name="positions" >
    <v>       0.00000000       0.00000000       0.00000000 </v>
   </varray>
  </structure>
  <varray name="forces" >
   <v>       0.00000000       0.00000000       0.00000000 </v>
  </varray>
  <varray name="stress" >
   <v>    -139.12046027      -0.00000000      -0.00000000 </v>
   <v>      -0.00000000    -139.12046027       0.00000000 </v>
   <v>      -0.00000000       0.00000000    -139.12046027 </v>
  </varray>
  <energy>
   <i name="e_fr_energy">     -4.58315355 </i>
   <i name="e_wo_entrp">     -4.58122057 </i>
   <i name="e_0_energy">     -0.00386596 </i>
  </energy>
  <time name="totalsc">    1.07    1.07</time>
  <eigenvalues>
   <array>
    <dimension dim="1">band</dimension>
    <dimension dim="2">kpoint</dimension>
    <dimension dim="3">spin</dimension>
    <field>eigene</field>
    <field>occ</field>
    <set>
     <set comment="spin 1">
      <set comment="kpoint 1">
       <r>   -5.3694    1.0000 </r>
       <r>   14.2510    0.0000 </r>
       <r>   14.2510    0.0000 </r>
       <r>   14.2510    0.0000 </r>
       <r>   17.3366    0.0000 </r>
       <r>   17.3366    0.0000 </r>
      </set>
      <set comment="kpoint 2">
       <r>   -5.1780    1.0000 </r>
       <r>   12.5691    0.0000 </r>
       <r>   13.9244    0.0000 </r>
       <r>   13.9245    0.0000 </r>
       <r>   17.4941    0.0000 </r>
       <r>   17.8554    0.0000 </r>
      </set>
      <set comment="kpoint 3">
       <r>   -4.6056    1.0000 </r>
       <r>    9.6637    0.0000 </r>
       <r>   13.3558    0.0000 </r>
       <r>   13.3559    0.0000 </r>
       <r>   17.3068    0.0000 </r>
       <r>   18.5127    0.0000 </r>
      </set>
      <set comment="kpoint 4">
       <r>   -3.6604    1.0000 </r>
       <r>    6.7480    0.0000 </r>
       <r>   12.9003    0.0000 </r>
       <r>   12.9004    0.0000 </r>
       <r>   17.0317    0.0000 </r>
       <r>   17.9376    0.0000 </r>
      </set>
      <set comment="kpoint 5">
       <r>   -2.3657    1.0000 </r>
       <r>    4.0821    1.0000 </r>
       <r>   12.6286    0.0000 </r>
       <r>   12.6287    0.0000 </r>
       <r>   16.8621    0.0000 </r>
       <r>   17.0851    0.0000 </r>
      </set>
      <set comment="kpoint 6">
       <r>   -0.8609    1.0000 </r>
       <r>    1.8823    1.0000 </r>
       <r>   12.5139    0.0000 </r>
       <r>   12.5140    0.0000 </r>
       <r>   16.5740    0.0000 </r>
       <r>   16.5743    0.0000 </r>
      </set>
      <set comment="kpoint 7">
       <r>   -5.1141    1.0000 </r>
       <r>   13.1418    0.0000 </r>
       <r>   13.1418    0.0000 </r>
       <r>   13.5505    0.0000 </r>
       <r>   16.1779    0.0000 </r>
       <r>   18.7508    0.0000 </r>
      </set>
      <set comment="kpoint 8">
       <r>   -4.6686    1.0000 </r>
       <r>   10.7520    0.0000 </r>
       <r>   12.4045    0.0000 </r>
       <r>   13.2947    0.0000 </r>
       <r>   16.1950    0.0000 </r>
       <r>   18.8501    0.0000 </r>
      </set>
      <set comment="kpoint 9">
       <r>   -3.8470    1.0000 </r>
       <r>    7.8376    0.0000 </r>
       <r>   11.9020    0.0000 </r>
       <r>   12.6815    0.0000 </r>
       <r>   16.2674    0.0000 </r>
       <r>   18.2951    0.0000 </r>
      </set>
      <set comment="kpoint 10">
       <r>   -2.6653    1.0000 </r>
       <r>    5.0858    1.0000 </r>
       <r>   11.6825    0.0000 </r>
       <r>   12.0405    0.0000 </r>
       <r>   15.7134    0.0000 </r>
       <r>   18.2197    0.0000 </r>
      </set>
      <set comment="kpoint 11">
       <r>   -1.1906    1.0000 </r>
       <r>    2.6917    1.0000 </r>
       <r>   11.4566    0.0000 </r>
       <r>   11.7462    0.0000 </r>
       <r>   15.4784    0.0000 </r>
       <r>   17.7710    0.0000 </r>
      </set>
      <set comment="kpoint 12">
       <r>   -0.3274    1.0000 </r>
       <r>    1.5976    1.0000 </r>
       <r>   11.0045    0.0000 </r>
       <r>   12.0685    0.0000 </r>
       <r>   15.7357    0.0000 </r>
       <r>   17.2595    0.0000 </r>
      </set>
      <set comment="kpoint 13">
       <r>   -1.7035    1.0000 </r>
       <r>    3.4366    1.0000 </r>
       <r>   10.7693    0.0000 </r>
       <r>   12.5902    0.0000 </r>
       <r>   16.4322    0.0000 </r>
       <r>   17.1641    0.0000 </r>
      </set>
      <set comment="kpoint 14">
       <r>   -3.0978    1.0000 </r>
       <r>    5.9765    1.0000 </r>
       <r>   10.8063    0.0000 </r>
       <r>   13.2250    0.0000 </r>
       <r>   17.4531    0.0000 </r>
       <r>   17.5428    0.0000 </r>
      </set>
      <set comment="kpoint 15">
       <r>   -4.1623    1.0000 </r>
       <r>    8.8088    0.0000 </r>
       <r>   11.1419    0.0000 </r>
       <r>   13.8549    0.0000 </r>
       <r>   17.9332    0.0000 </r>
       <r>   18.1546    0.0000 </r>
      </set>
      <set comment="kpoint 16">
       <r>   -4.8596    1.0000 </r>
       <r>   11.5827    0.0000 </r>
       <r>   11.9089    0.0000 </r>
       <r>   14.2357    0.0000 </r>
       <r>   17.7139    0.0000 </r>
       <r>   17.8350    0.0000 </r>
      </set>
      <set comment="kpoint 17">
       <r>   -4.3506    1.0000 </r>
       <r>   11.5458    0.0000 </r>
       <r>   11.5459    0.0000 </r>
       <r>   11.8422    0.0000 </r>
       <r>   14.4045    0.0000 </r>
       <r>   16.9387    0.0000 </r>
      </set>
      <set comment="kpoint 18">
       <r>   -3.6551    1.0000 </r>
       <r>    9.1286    0.0000 </r>
       <r>   10.9468    0.0000 </r>
       <r>   11.3172    0.0000 </r>
       <r>   14.4440    0.0000 </r>
       <r>   16.0851    0.0000 </r>
      </set>
      <set comment="kpoint 19">
       <r>   -2.5936    1.0000 </r>
       <r>    6.3932    0.4386 </r>
       <r>   10.3349    0.0000 </r>
       <r>   10.6519    0.0000 </r>
       <r>   14.1466    0.0000 </r>
       <r>   17.4213    0.0000 </r>
      </set>
      <set comment="kpoint 20">
       <r>   -1.2039    1.0000 </r>
       <r>    3.8941    1.0000 </r>
       <r>    9.3940    0.0000 </r>
       <r>   10.6753    0.0000 </r>
       <r>   13.9959    0.0000 </r>
       <r>   19.2184    0.0000 </r>
      </set>
      <set comment="kpoint 21">
       <r>    0.1636    1.0000 </r>
       <r>    2.0755    1.0000 </r>
       <r>    8.6602    0.0000 </r>
       <r>   11.0075    0.0000 </r>
       <r>   14.2833    0.0000 </r>
       <r>   19.2107    0.0000 </r>
      </set>
      <set comment="kpoint 22">
       <r>   -0.7006    1.0000 </r>
       <r>    3.1732    1.0000 </r>
       <r>    8.2110    0.0000 </r>
       <r>   11.6267    0.0000 </r>
       <r>   14.9859    0.0000 </r>
       <r>   18.8201    0.0000 </r>
      </set>
      <set comment="kpoint 23">
       <r>   -2.1680    1.0000 </r>
       <r>    5.5517    1.0000 </r>
       <r>    8.0848    0.0000 </r>
       <r>   12.4691    0.0000 </r>
       <r>   16.0555    0.0000 </r>
       <r>   18.8008    0.0000 </r>
      </set>
      <set comment="kpoint 24">
       <r>   -3.3445    1.0000 </r>
       <r>    8.1433    0.0000 </r>
       <r>    8.4203    0.0000 </r>
       <r>   13.3715    0.0000 </r>
       <r>   17.3892    0.0000 </r>
       <r>   19.0459    0.0000 </r>
      </set>
      <set comment="kpoint 25">
       <r>   -3.0867    1.0000 </r>
       <r>    9.4043    0.0000 </r>
       <r>   10.2443    0.0000 </r>
       <r>   10.2443    0.0000 </r>
       <r>   12.9418    0.0000 </r>
       <r>   14.2502    0.0000 </r>
      </set>
      <set comment="kpoint 26">
       <r>   -2.1495    1.0000 </r>
       <r>    7.5539    0.0000 </r>
       <r>    8.9054    0.0000 </r>
       <r>    9.8494    0.0000 </r>
       <r>   12.9415    0.0000 </r>
       <r>   14.4545    0.0000 </r>
      </set>
      <set comment="kpoint 27">
       <r>   -0.8687    1.0000 </r>
       <r>    5.2987    1.0000 </r>
       <r>    7.4701    0.0000 </r>
       <r>    9.7804    0.0000 </r>
       <r>   12.8388    0.0000 </r>
       <r>   16.5679    0.0000 </r>
      </set>
      <set comment="kpoint 28">
       <r>    0.6111    1.0000 </r>
       <r>    3.2511    1.0000 </r>
       <r>    6.4436    0.1930 </r>
       <r>   10.0369    0.0000 </r>
       <r>   13.0797    0.0000 </r>
       <r>   19.0822    0.0000 </r>
      </set>
      <set comment="kpoint 29">
       <r>    0.5765    1.0000 </r>
       <r>    3.3262    1.0000 </r>
       <r>    5.7871    1.0000 </r>
       <r>   10.6079    0.0000 </r>
       <r>   13.7188    0.0000 </r>
       <r>   21.0780    0.0000 </r>
      </set>
      <set comment="kpoint 30">
       <r>   -0.8972    1.0000 </r>
       <r>    5.4130    1.0000 </r>
       <r>    5.5711    1.0000 </r>
       <r>   11.4568    0.0000 </r>
       <r>   14.7330    0.0000 </r>
       <r>   20.4692    0.0000 </r>
      </set>
      <set comment="kpoint 31">
       <r>   -1.3387    1.0000 </r>
       <r>    6.4718    0.1029 </r>
       <r>    9.3505    0.0000 </r>
       <r>    9.3506    0.0000 </r>
       <r>   11.9350    0.0000 </r>
       <r>   12.7116    0.0000 </r>
      </set>
      <set comment="kpoint 32">
       <r>   -0.1792    1.0000 </r>
       <r>    5.0350    1.0000 </r>
       <r>    7.6927    0.0000 </r>
       <r>    9.1780    0.0000 </r>
       <r>   12.0548    0.0000 </r>
       <r>   13.6249    0.0000 </r>
      </set>
      <set comment="kpoint 33">
       <r>    1.2418    1.0000 </r>
       <r>    3.8175    1.0000 </r>
       <r>    5.5996    1.0000 </r>
       <r>    9.3366    0.0000 </r>
       <r>   12.2385    0.0000 </r>
       <r>   16.1202    0.0000 </r>
      </set>
      <set comment="kpoint 34">
       <r>    1.8142    1.0000 </r>
       <r>    3.6258    1.0000 </r>
       <r>    4.2352    1.0000 </r>
       <r>    9.8210    0.0000 </r>
       <r>   12.7924    0.0000 </r>
       <r>   18.9568    0.0000 </r>
      </set>
      <set comment="kpoint 35">
       <r>    0.8463    1.0000 </r>
       <r>    3.5743    1.0000 </r>
       <r>    8.8988    0.0000 </r>
       <r>    8.8988    0.0000 </r>
       <r>   11.4297    0.0000 </r>
       <r>   12.0388    0.0000 </r>
      </set>
      <set comment="kpoint 36">
       <r>    1.8857    1.0000 </r>
       <r>    2.6451    1.0000 </r>
       <r>    7.3936    0.0000 </r>
       <r>    8.9519    0.0000 </r>
       <r>   11.7629    0.0000 </r>
       <r>   13.3566    0.0000 </r>
      </set>
      <set comment="kpoint 37">
       <r>   -4.0981    1.0000 </r>
       <r>    9.8617    0.0000 </r>
       <r>   10.2020    0.0000 </r>
       <r>   13.1229    0.0000 </r>
       <r>   16.1726    0.0000 </r>
       <r>   17.6080    0.0000 </r>
      </set>
      <set comment="kpoint 38">
       <r>   -3.1562    1.0000 </r>
       <r>    7.1772    0.0000 </r>
       <r>    9.6013    0.0000 </r>
       <r>   12.3471    0.0000 </r>
       <r>   16.2269    0.0000 </r>
       <r>   17.8654    0.0000 </r>
      </set>
      <set comment="kpoint 39">
       <r>   -1.8662    1.0000 </r>
       <r>    4.5479    1.0000 </r>
       <r>    9.4441    0.0000 </r>
       <r>   11.4582    0.0000 </r>
       <r>   15.9154    0.0000 </r>
       <r>   17.7419    0.0000 </r>
      </set>
      <set comment="kpoint 40">
       <r>   -0.3675    1.0000 </r>
       <r>    2.3624    1.0000 </r>
       <r>    9.4925    0.0000 </r>
       <r>   10.8393    0.0000 </r>
       <r>   15.8597    0.0000 </r>
       <r>   17.1746    0.0000 </r>
      </set>
      <set comment="kpoint 41">
       <r>   -2.8390    1.0000 </r>
       <r>    8.3089    0.0000 </r>
       <r>    8.8266    0.0000 </r>
       <r>   10.6894    0.0000 </r>
       <r>   14.8096    0.0000 </r>
       <r>   15.4250    0.0000 </r>
      </set>
      <set comment="kpoint 42">
       <r>   -1.6658    1.0000 </r>
       <r>    5.9301    1.0000 </r>
       <r>    8.2060    0.0000 </r>
       <r>    9.6859    0.0000 </r>
       <r>   14.8315    0.0000 </r>
       <r>   17.0131    0.0000 </r>
      </set>
      <set comment="kpoint 43">
       <r>   -0.2042    1.0000 </r>
       <r>    3.6133    1.0000 </r>
       <r>    7.7381    0.0000 </r>
       <r>    9.2546    0.0000 </r>
       <r>   14.9233    0.0000 </r>
       <r>   18.7265    0.0000 </r>
      </set>
      <set comment="kpoint 44">
       <r>    0.6396    1.0000 </r>
       <r>    2.5565    1.0000 </r>
       <r>    7.2095    0.0000 </r>
       <r>    9.5380    0.0000 </r>
       <r>   15.3511    0.0000 </r>
       <r>   18.5587    0.0000 </r>
      </set>
      <set comment="kpoint 45">
       <r>   -0.7215    1.0000 </r>
       <r>    4.3738    1.0000 </r>
       <r>    6.8883    0.0000 </r>
       <r>   10.2762    0.0000 </r>
       <r>   16.0630    0.0000 </r>
       <r>   18.3241    0.0000 </r>
      </set>
      <set comment="kpoint 46">
       <r>   -2.1012    1.0000 </r>
       <r>    6.7297    0.0000 </r>
       <r>    7.0058    0.0000 </r>
       <r>   11.3106    0.0000 </r>
       <r>   16.8512    0.0000 </r>
       <r>   17.9515    0.0000 </r>
      </set>
      <set comment="kpoint 47">
       <r>   -1.1004    1.0000 </r>
       <r>    6.3814    0.5050 </r>
       <r>    7.8866    0.0000 </r>
       <r>    8.5577    0.0000 </r>
       <r>   13.8597    0.0000 </r>
       <r>   14.2097    0.0000 </r>
      </set>
      <set comment="kpoint 48">
       <r>    0.2668    1.0000 </r>
       <r>    4.8211    1.0000 </r>
       <r>    6.2845    0.9167 </r>
       <r>    8.2128    0.0000 </r>
       <r>   14.0574    0.0000 </r>
       <r>   16.3868    0.0000 </r>
      </set>
      <set comment="kpoint 49">
       <r>    1.5644    1.0000 </r>
       <r>    3.3938    1.0000 </r>
       <r>    5.1779    1.0000 </r>
       <r>    8.5318    0.0000 </r>
       <r>   14.4352    0.0000 </r>
       <r>   18.9978    0.0000 </r>
      </set>
      <set comment="kpoint 50">
       <r>    0.6930    1.0000 </r>
       <r>    4.5556    1.0000 </r>
       <r>    4.6009    1.0000 </r>
       <r>    9.2430    0.0000 </r>
       <r>   15.1462    0.0000 </r>
       <r>   20.4070    0.0000 </r>
      </set>
      <set comment="kpoint 51">
       <r>    1.0591    1.0000 </r>
       <r>    3.7561    1.0000 </r>
       <r>    7.4124    0.0000 </r>
       <r>    7.7642    0.0000 </r>
       <r>   13.3801    0.0000 </r>
       <r>   13.6551    0.0000 </r>
      </set>
      <set comment="kpoint 52">
       <r>    2.1482    1.0000 </r>
       <r>    3.1359    1.0000 </r>
       <r>    5.5249    1.0000 </r>
       <r>    7.8896    0.0000 </r>
       <r>   13.8025    0.0000 </r>
       <r>   16.1663    0.0000 </r>
      </set>
      <set comment="kpoint 53">
       <r>   -0.3994    1.0000 </r>
       <r>    5.5947    1.0000 </r>
       <r>    6.0451    1.0000 </r>
       <r>    8.4009    0.0000 </r>
       <r>   16.6839    0.0000 </r>
       <r>   17.0744    0.0000 </r>
      </set>
      <set comment="kpoint 54">
       <r>    1.0604    1.0000 </r>
       <r>    3.7363    1.0000 </r>
       <r>    5.9057    1.0000 </r>
       <r>    7.5980    0.0000 </r>
       <r>   16.8075    0.0000 </r>
       <r>   18.3707    0.0000 </r>
      </set>
      <set comment="kpoint 55">
       <r>    1.6405    1.0000 </r>
       <r>    4.1674    1.0000 </r>
       <r>    5.5621    1.0000 </r>
       <r>    6.5020    0.0453 </r>
       <r>   16.4163    0.0000 </r>
       <r>   16.6239    0.0000 </r>
      </set>
      <set comment="kpoint 56">
       <r>    2.2286    1.0000 </r>
       <r>    4.1125    1.0000 </r>
       <r>    4.4647    1.0000 </r>
       <r>    6.6101    0.0006 </r>
       <r>   16.8662    0.0000 </r>
       <r>   19.0392    0.0000 </r>
      </set>
     </set>
    </set>
   </array>
  </eigenvalues>
  <separator name="orbital magnetization" >
   <v name="MAGDIPOLOUT">      0.00000000      0.00000000      0.00000000</v>
  </separator>
  <dos>
   <i name="efermi">      6.38231015 </i>
   <total>
    <array>
     <dimension dim="1">gridpoints</dimension>
     <dimension dim="2">spin</dimension>
     <field>energy</field>
     <field>total</field>
     <field>integrated</field>
     <set>
      <set comment="spin 1">
       <r>    -6.6918     0.0000     0.0000 </r>
       <r>    -6.5948     0.0000     0.0000 </r>
       <r>    -6.4978     0.0000     0.0000 </r>
       <r>    -6.4009     0.0000     0.0000 </r>
       <r>    -6.3039     0.0000     0.0000 </r>
       <r>    -6.2069     0.0000     0.0000 </r>
       <r>    -6.1099     0.0000     0.0000 </r>
       <r>    -6.0130     0.0000     0.0000 </r>
       <r>    -5.9160     0.0000     0.0000 </r>
       <r>    -5.8190     0.0000     0.0000 </r>
       <r>    -5.7220     0.0000     0.0000 </r>
       <r>    -5.6251     0.0000     0.0000 </r>
       <r>    -5.5281     0.0002     0.0000 </r>
       <r>    -5.4311     0.0028     0.0003 </r>
       <r>    -5.3342     0.0095     0.0012 </r>
       <r>    -5.2372     0.0313     0.0042 </r>
       <r>    -5.1402     0.0920     0.0132 </r>
       <r>    -5.0432     0.0793     0.0209 </r>
       <r>    -4.9463     0.0369     0.0244 </r>
       <r>    -4.8493     0.0861     0.0328 </r>
       <r>    -4.7523     0.1145     0.0439 </r>
       <r>    -4.6553     0.2088     0.0641 </r>
       <r>    -4.5584     0.1995     0.0835 </r>
       <r>    -4.4614     0.0555     0.0889 </r>
       <r>    -4.3644     0.0378     0.0925 </r>
       <r>    -4.2674     0.0703     0.0994 </r>
       <r>    -4.1705     0.2078     0.1195 </r>
       <r>    -4.0735     0.3445     0.1529 </r>
       <r>    -3.9765     0.1690     0.1693 </r>
       <r>    -3.8795     0.1251     0.1814 </r>
       <r>    -3.7826     0.2030     0.2011 </r>
       <r>    -3.6856     0.2133     0.2218 </r>
       <r>    -3.5886     0.2476     0.2458 </r>
       <r>    -3.4916     0.0823     0.2538 </r>
       <r>    -3.3947     0.0461     0.2583 </r>
       <r>    -3.2977     0.1119     0.2691 </r>
       <r>    -3.2007     0.2542     0.2938 </r>
       <r>    -3.1038     0.5596     0.3481 </r>
       <r>    -3.0068     0.3657     0.3835 </r>
       <r>    -2.9098     0.1152     0.3947 </r>
       <r>    -2.8128     0.1901     0.4131 </r>
       <r>    -2.7159     0.2137     0.4338 </r>
       <r>    -2.6189     0.3218     0.4651 </r>
       <r>    -2.5219     0.2693     0.4912 </r>
       <r>    -2.4249     0.0857     0.4995 </r>
       <r>    -2.3280     0.0723     0.5065 </r>
       <r>    -2.2310     0.1546     0.5215 </r>
       <r>    -2.1340     0.4678     0.5668 </r>
       <r>    -2.0370     0.4288     0.6084 </r>
       <r>    -1.9401     0.1998     0.6278 </r>
       <r>    -1.8431     0.3753     0.6642 </r>
       <r>    -1.7461     0.4268     0.7056 </r>
       <r>    -1.6491     0.5665     0.7605 </r>
       <r>    -1.5522     0.3395     0.7934 </r>
       <r>    -1.4552     0.0496     0.7982 </r>
       <r>    -1.3582     0.0416     0.8023 </r>
       <r>    -1.2612     0.1761     0.8193 </r>
       <r>    -1.1643     0.4441     0.8624 </r>
       <r>    -1.0673     0.4020     0.9014 </r>
       <r>    -0.9703     0.1923     0.9200 </r>
       <r>    -0.8733     0.3103     0.9501 </r>
       <r>    -0.7764     0.4780     0.9965 </r>
       <r>    -0.6794     0.6088     1.0555 </r>
       <r>    -0.5824     0.3161     1.0862 </r>
       <r>    -0.4855     0.1142     1.0973 </r>
       <r>    -0.3885     0.4889     1.1447 </r>
       <r>    -0.2915     0.7768     1.2200 </r>
       <r>    -0.1945     0.6901     1.2869 </r>
       <r>    -0.0976     0.4712     1.3326 </r>
       <r>    -0.0006     0.0954     1.3419 </r>
       <r>     0.0964     0.0693     1.3486 </r>
       <r>     0.1934     0.2883     1.3766 </r>
       <r>     0.2903     0.4693     1.4221 </r>
       <r>     0.3873     0.2572     1.4470 </r>
       <r>     0.4843     0.0909     1.4558 </r>
       <r>     0.5813     0.4349     1.4980 </r>
       <r>     0.6782     0.8399     1.5794 </r>
       <r>     0.7752     0.4689     1.6249 </r>
       <r>     0.8722     0.1178     1.6363 </r>
       <r>     0.9692     0.1386     1.6498 </r>
       <r>     1.0661     0.4917     1.6975 </r>
       <r>     1.1631     0.4854     1.7445 </r>
       <r>     1.2601     0.2525     1.7690 </r>
       <r>     1.3571     0.1329     1.7819 </r>
       <r>     1.4540     0.0709     1.7888 </r>
       <r>     1.5510     0.3961     1.8272 </r>
       <r>     1.6480     0.6932     1.8944 </r>
       <r>     1.7449     0.3463     1.9280 </r>
       <r>     1.8419     0.2045     1.9478 </r>
       <r>     1.9389     0.2253     1.9697 </r>
       <r>     2.0359     0.1889     1.9880 </r>
       <r>     2.1328     0.3574     2.0226 </r>
       <r>     2.2298     0.4219     2.0635 </r>
       <r>     2.3268     0.4083     2.1031 </r>
       <r>     2.4238     0.4260     2.1445 </r>
       <r>     2.5207     0.3508     2.1785 </r>
       <r>     2.6177     0.4909     2.2261 </r>
       <r>     2.7147     0.4036     2.2652 </r>
       <r>     2.8117     0.1596     2.2807 </r>
       <r>     2.9086     0.0184     2.2825 </r>
       <r>     3.0056     0.0157     2.2840 </r>
       <r>     3.1026     0.1691     2.3004 </r>
       <r>     3.1996     0.4615     2.3452 </r>
       <r>     3.2965     0.5505     2.3985 </r>
       <r>     3.3935     0.6916     2.4656 </r>
       <r>     3.4905     0.6113     2.5249 </r>
       <r>     3.5875     0.4855     2.5720 </r>
       <r>     3.6844     0.7222     2.6420 </r>
       <r>     3.7814     0.8304     2.7225 </r>
       <r>     3.8784     0.6248     2.7831 </r>
       <r>     3.9754     0.2900     2.8112 </r>
       <r>     4.0723     0.2270     2.8333 </r>
       <r>     4.1693     0.4338     2.8753 </r>
       <r>     4.2663     0.3769     2.9119 </r>
       <r>     4.3632     0.4020     2.9509 </r>
       <r>     4.4602     0.6062     3.0096 </r>
       <r>     4.5572     0.8169     3.0889 </r>
       <r>     4.6542     0.6685     3.1537 </r>
       <r>     4.7511     0.2696     3.1798 </r>
       <r>     4.8481     0.3731     3.2160 </r>
       <r>     4.9451     0.2768     3.2429 </r>
       <r>     5.0421     0.3029     3.2722 </r>
       <r>     5.1390     0.5346     3.3241 </r>
       <r>     5.2360     0.5437     3.3768 </r>
       <r>     5.3330     0.3594     3.4116 </r>
       <r>     5.4300     0.2718     3.4380 </r>
       <r>     5.5269     0.6148     3.4976 </r>
       <r>     5.6239     0.9872     3.5934 </r>
       <r>     5.7209     0.4867     3.6406 </r>
       <r>     5.8179     0.3463     3.6741 </r>
       <r>     5.9148     0.7864     3.7504 </r>
       <r>     6.0118     0.9324     3.8408 </r>
       <r>     6.1088     0.4295     3.8825 </r>
       <r>     6.2058     0.1790     3.8998 </r>
       <r>     6.3027     0.4463     3.9431 </r>
       <r>     6.3997     0.7261     4.0135 </r>
       <r>     6.4967     0.7124     4.0826 </r>
       <r>     6.5936     0.4573     4.1269 </r>
       <r>     6.6906     0.3428     4.1602 </r>
       <r>     6.7876     0.3522     4.1943 </r>
       <r>     6.8846     0.4206     4.2351 </r>
       <r>     6.9815     0.4489     4.2787 </r>
       <r>     7.0785     0.3282     4.3105 </r>
       <r>     7.1755     0.5712     4.3659 </r>
       <r>     7.2725     0.7040     4.4341 </r>
       <r>     7.3694     0.3758     4.4706 </r>
       <r>     7.4664     0.5000     4.5191 </r>
       <r>     7.5634     0.6551     4.5826 </r>
       <r>     7.6604     0.7856     4.6588 </r>
       <r>     7.7573     0.9058     4.7466 </r>
       <r>     7.8543     0.8747     4.8315 </r>
       <r>     7.9513     0.5897     4.8886 </r>
       <r>     8.0483     0.2899     4.9167 </r>
       <r>     8.1452     0.5937     4.9743 </r>
       <r>     8.2422     1.1322     5.0841 </r>
       <r>     8.3392     0.8323     5.1648 </r>
       <r>     8.4362     0.5237     5.2156 </r>
       <r>     8.5331     0.6287     5.2766 </r>
       <r>     8.6301     0.6205     5.3367 </r>
       <r>     8.7271     0.3727     5.3729 </r>
       <r>     8.8240     0.4643     5.4179 </r>
       <r>     8.9210     0.6110     5.4772 </r>
       <r>     9.0180     0.3652     5.5126 </r>
       <r>     9.1150     0.2924     5.5409 </r>
       <r>     9.2119     0.6742     5.6063 </r>
       <r>     9.3089     0.9425     5.6977 </r>
       <r>     9.4059     1.0121     5.7959 </r>
       <r>     9.5029     1.2652     5.9185 </r>
       <r>     9.5998     1.2365     6.0385 </r>
       <r>     9.6968     0.9573     6.1313 </r>
       <r>     9.7938     0.7497     6.2040 </r>
       <r>     9.8908     0.6566     6.2677 </r>
       <r>     9.9877     0.3423     6.3009 </r>
       <r>    10.0847     0.2361     6.3237 </r>
       <r>    10.1817     0.3147     6.3543 </r>
       <r>    10.2787     0.6649     6.4188 </r>
       <r>    10.3756     0.5917     6.4761 </r>
       <r>    10.4726     0.1745     6.4930 </r>
       <r>    10.5696     0.1973     6.5122 </r>
       <r>    10.6666     0.7036     6.5804 </r>
       <r>    10.7635     1.0568     6.6829 </r>
       <r>    10.8605     1.0116     6.7810 </r>
       <r>    10.9575     0.7255     6.8513 </r>
       <r>    11.0545     0.5980     6.9093 </r>
       <r>    11.1514     0.3663     6.9449 </r>
       <r>    11.2484     0.2831     6.9723 </r>
       <r>    11.3454     0.4739     7.0183 </r>
       <r>    11.4423     0.7471     7.0907 </r>
       <r>    11.5393     0.8258     7.1708 </r>
       <r>    11.6363     0.6166     7.2306 </r>
       <r>    11.7333     0.5966     7.2885 </r>
       <r>    11.8302     0.4894     7.3359 </r>
       <r>    11.9272     0.4706     7.3815 </r>
       <r>    12.0242     0.6043     7.4401 </r>
       <r>    12.1212     0.6397     7.5022 </r>
       <r>    12.2181     0.3484     7.5360 </r>
       <r>    12.3151     0.4489     7.5795 </r>
       <r>    12.4121     0.6760     7.6450 </r>
       <r>    12.5091     0.6389     7.7070 </r>
       <r>    12.6060     0.6100     7.7662 </r>
       <r>    12.7030     0.5605     7.8205 </r>
       <r>    12.8000     0.4331     7.8625 </r>
       <r>    12.8970     0.5023     7.9112 </r>
       <r>    12.9939     0.4818     7.9579 </r>
       <r>    13.0909     0.4541     8.0020 </r>
       <r>    13.1879     0.5566     8.0560 </r>
       <r>    13.2849     0.5725     8.1115 </r>
       <r>    13.3818     0.6947     8.1788 </r>
       <r>    13.4788     0.4267     8.2202 </r>
       <r>    13.5758     0.2431     8.2438 </r>
       <r>    13.6727     0.4971     8.2920 </r>
       <r>    13.7697     0.5951     8.3497 </r>
       <r>    13.8667     0.6858     8.4162 </r>
       <r>    13.9637     0.6549     8.4797 </r>
       <r>    14.0606     0.6665     8.5443 </r>
       <r>    14.1576     0.6679     8.6091 </r>
       <r>    14.2546     0.6565     8.6728 </r>
       <r>    14.3516     0.5804     8.7291 </r>
       <r>    14.4485     0.7797     8.8047 </r>
       <r>    14.5455     0.6099     8.8638 </r>
       <r>    14.6425     0.1317     8.8766 </r>
       <r>    14.7395     0.2136     8.8973 </r>
       <r>    14.8364     0.6592     8.9612 </r>
       <r>    14.9334     0.8364     9.0423 </r>
       <r>    15.0304     0.5567     9.0963 </r>
       <r>    15.1274     0.2676     9.1223 </r>
       <r>    15.2243     0.2122     9.1429 </r>
       <r>    15.3213     0.3015     9.1721 </r>
       <r>    15.4183     0.5825     9.2286 </r>
       <r>    15.5153     0.4699     9.2741 </r>
       <r>    15.6122     0.1869     9.2923 </r>
       <r>    15.7092     0.2911     9.3205 </r>
       <r>    15.8062     0.5399     9.3729 </r>
       <r>    15.9032     0.7584     9.4464 </r>
       <r>    16.0001     0.7950     9.5235 </r>
       <r>    16.0971     1.1236     9.6325 </r>
       <r>    16.1941     1.4500     9.7731 </r>
       <r>    16.2910     1.1677     9.8863 </r>
       <r>    16.3880     0.8390     9.9677 </r>
       <r>    16.4850     0.7795    10.0433 </r>
       <r>    16.5820     0.5965    10.1011 </r>
       <r>    16.6789     0.6083    10.1601 </r>
       <r>    16.7759     0.5925    10.2176 </r>
       <r>    16.8729     0.8404    10.2990 </r>
       <r>    16.9699     0.7267    10.3695 </r>
       <r>    17.0668     0.7885    10.4460 </r>
       <r>    17.1638     0.8828    10.5316 </r>
       <r>    17.2608     0.7584    10.6051 </r>
       <r>    17.3578     0.4986    10.6535 </r>
       <r>    17.4547     0.5809    10.7098 </r>
       <r>    17.5517     0.6001    10.7680 </r>
       <r>    17.6487     0.5122    10.8177 </r>
       <r>    17.7457     0.7122    10.8867 </r>
       <r>    17.8426     0.9840    10.9822 </r>
       <r>    17.9396     0.9544    11.0747 </r>
       <r>    18.0366     0.5188    11.1250 </r>
       <r>    18.1336     0.2545    11.1497 </r>
       <r>    18.2305     0.4939    11.1976 </r>
       <r>    18.3275     0.8758    11.2825 </r>
       <r>    18.4245     0.8430    11.3643 </r>
       <r>    18.5214     0.4803    11.4108 </r>
       <r>    18.6184     0.4861    11.4580 </r>
       <r>    18.7154     0.5265    11.5090 </r>
       <r>    18.8124     0.8103    11.5876 </r>
       <r>    18.9093     0.7233    11.6578 </r>
       <r>    19.0063     0.7639    11.7318 </r>
       <r>    19.1033     0.8318    11.8125 </r>
       <r>    19.2003     0.5463    11.8655 </r>
       <r>    19.2972     0.3666    11.9010 </r>
       <r>    19.3942     0.0866    11.9094 </r>
       <r>    19.4912     0.0041    11.9098 </r>
       <r>    19.5882     0.0000    11.9098 </r>
       <r>    19.6851     0.0000    11.9098 </r>
       <r>    19.7821     0.0000    11.9098 </r>
       <r>    19.8791     0.0000    11.9098 </r>
       <r>    19.9761     0.0000    11.9098 </r>
       <r>    20.0730     0.0000    11.9098 </r>
       <r>    20.1700     0.0002    11.9099 </r>
       <r>    20.2670     0.0091    11.9107 </r>
       <r>    20.3640     0.1043    11.9209 </r>
       <r>    20.4609     0.2597    11.9460 </r>
       <r>    20.5579     0.1589    11.9615 </r>
       <r>    20.6549     0.0247    11.9639 </r>
       <r>    20.7519     0.0009    11.9639 </r>
       <r>    20.8488     0.0002    11.9640 </r>
       <r>    20.9458     0.0112    11.9650 </r>
       <r>    21.0428     0.1035    11.9751 </r>
       <r>    21.1397     0.1858    11.9931 </r>
       <r>    21.2367     0.0666    11.9996 </r>
       <r>    21.3337     0.0046    12.0000 </r>
       <r>    21.4307     0.0001    12.0000 </r>
       <r>    21.5276     0.0000    12.0000 </r>
       <r>    21.6246     0.0000    12.0000 </r>
       <r>    21.7216     0.0000    12.0000 </r>
       <r>    21.8186     0.0000    12.0000 </r>
       <r>    21.9155     0.0000    12.0000 </r>
       <r>    22.0125     0.0000    12.0000 </r>
       <r>    22.1095     0.0000    12.0000 </r>
       <r>    22.2065     0.0000    12.0000 </r>
       <r>    22.3034     0.0000    12.0000 </r>
       <r>    22.4004     0.0000    12.0000 </r>
      </set>
     </set>
    </array>
   </total>
  </dos>
 </calculation>
 <structure name="finalpos" >
  <crystal>
   <varray name="basis" >
    <v>       2.15000000       2.15000000       0.00000000 </v>
    <v>       0.00000000       2.15000000       2.15000000 </v>
    <v>       2.15000000       0.00000000       2.15000000 </v>
   </varray>
   <i name="volume">     19.87675000 </i>
   <varray name="rec_basis" >
    <v>       0.23255814       0.23255814      -0.23255814 </v>
    <v>      -0.23255814       0.23255814       0.23255814 </v>
    <v>       0.23255814      -0.23255814       0.23255814 </v>
   </varray>
  </crystal>
  <varray name="positions" >
   <v>       0.00000000       0.00000000       0.00000000 </v>
  </varray>
 </structure>
</modeling>
